M 0.50000 0 (441.50, 280.94, 0.00), (250.00, 250.00), 50.00
M 0.50000 2 (426.16, 6.02, 0.00), (350.00, 250.00), 50.00
s 0.500000000 _1_ AGT  --- 0 tcp 40 [0 0 0 0] ------- [1:0 2:0 32 0] [0 0] 0 0
r 0.500000000 _1_ RTR  --- 0 tcp 40 [0 0 0 0] ------- [1:0 2:0 32 0] [0 0] 0 0
s 0.500000000 _1_ RTR  --- 0 AODV 48 [0 0 0 0] ------- [1:255 -1:255 30 0] [0x2 1 1 [2 0] [1 4]] (REQUEST)
r 0.500988404 _2_ RTR  --- 0 AODV 48 [0 ffffffff 1 800] ------- [1:255 -1:255 30 0] [0x2 1 1 [2 0] [1 4]] (REQUEST)
s 0.500988404 _2_ RTR  --- 0 AODV 44 [0 0 0 0] ------- [2:255 1:255 30 1] [0x4 1 [2 4] 10.000000] (REPLY)
r 0.500988763 _3_ RTR  --- 0 AODV 48 [0 ffffffff 1 800] ------- [1:255 -1:255 30 0] [0x2 1 1 [2 0] [1 4]] (REQUEST)
r 0.500988975 _0_ RTR  --- 0 AODV 48 [0 ffffffff 1 800] ------- [1:255 -1:255 30 0] [0x2 1 1 [2 0] [1 4]] (REQUEST)
s 0.501869990 _3_ RTR  --- 0 AODV 48 [0 ffffffff 1 800] ------- [3:255 -1:255 29 0] [0x2 2 1 [2 0] [1 4]] (REQUEST)
r 0.503018752 _1_ RTR  --- 0 AODV 48 [0 ffffffff 3 800] ------- [3:255 -1:255 29 0] [0x2 2 1 [2 0] [1 4]] (REQUEST)
r 0.503018795 _0_ RTR  --- 0 AODV 48 [0 ffffffff 3 800] ------- [3:255 -1:255 29 0] [0x2 2 1 [2 0] [1 4]] (REQUEST)
r 0.503019030 _2_ RTR  --- 0 AODV 48 [0 ffffffff 3 800] ------- [3:255 -1:255 29 0] [0x2 2 1 [2 0] [1 4]] (REQUEST)
s 0.505400709 _0_ RTR  --- 0 AODV 48 [0 ffffffff 1 800] ------- [0:255 -1:255 29 0] [0x2 2 1 [2 0] [1 4]] (REQUEST)
r 0.506831173 _1_ RTR  --- 0 AODV 44 [13a 1 2 800] ------- [2:255 1:255 30 1] [0x4 1 [2 4] 10.000000] (REPLY)
s 0.506831173 _1_ RTR  --- 0 tcp 40 [0 0 0 0] ------- [1:0 2:0 30 2] [0 0] 0 0
r 0.508696382 _2_ AGT  --- 0 tcp 40 [13a 2 1 800] ------- [1:0 2:0 30 2] [0 0] 1 0
s 0.508696382 _2_ AGT  --- 1 ack 40 [0 0 0 0] ------- [2:0 1:0 32 0] [0 0] 0 0
r 0.508696382 _2_ RTR  --- 1 ack 40 [0 0 0 0] ------- [2:0 1:0 32 0] [0 0] 0 0
s 0.508696382 _2_ RTR  --- 1 ack 40 [0 0 0 0] ------- [2:0 1:0 30 1] [0 0] 0 0
r 0.510130102 _3_ RTR  --- 0 AODV 48 [0 ffffffff 0 800] ------- [0:255 -1:255 29 0] [0x2 2 1 [2 0] [1 4]] (REQUEST)
r 0.510130215 _2_ RTR  --- 0 AODV 48 [0 ffffffff 0 800] ------- [0:255 -1:255 29 0] [0x2 2 1 [2 0] [1 4]] (REQUEST)
r 0.510130273 _1_ RTR  --- 0 AODV 48 [0 ffffffff 0 800] ------- [0:255 -1:255 29 0] [0x2 2 1 [2 0] [1 4]] (REQUEST)
r 0.511941423 _1_ AGT  --- 1 ack 40 [13a 1 2 800] ------- [2:0 1:0 30 1] [0 0] 1 0
s 0.511941423 _1_ AGT  --- 2 tcp 1040 [0 0 0 0] ------- [1:0 2:0 32 0] [1 0] 0 0
r 0.511941423 _1_ RTR  --- 2 tcp 1040 [0 0 0 0] ------- [1:0 2:0 32 0] [1 0] 0 0
s 0.511941423 _1_ AGT  --- 3 tcp 1040 [0 0 0 0] ------- [1:0 2:0 32 0] [2 0] 0 0
r 0.511941423 _1_ RTR  --- 3 tcp 1040 [0 0 0 0] ------- [1:0 2:0 32 0] [2 0] 0 0
s 0.511941423 _1_ RTR  --- 2 tcp 1040 [0 0 0 0] ------- [1:0 2:0 30 2] [1 0] 0 0
s 0.511941423 _1_ RTR  --- 3 tcp 1040 [0 0 0 0] ------- [1:0 2:0 30 2] [2 0] 0 0
r 0.522006632 _2_ AGT  --- 2 tcp 1040 [13a 2 1 800] ------- [1:0 2:0 30 2] [1 0] 1 0
s 0.522006632 _2_ AGT  --- 4 ack 40 [0 0 0 0] ------- [2:0 1:0 32 0] [1 0] 0 0
r 0.522006632 _2_ RTR  --- 4 ack 40 [0 0 0 0] ------- [2:0 1:0 32 0] [1 0] 0 0
s 0.522006632 _2_ RTR  --- 4 ack 40 [0 0 0 0] ------- [2:0 1:0 30 1] [1 0] 0 0
r 0.532172240 _2_ AGT  --- 3 tcp 1040 [13a 2 1 800] ------- [1:0 2:0 30 2] [2 0] 1 0
s 0.532172240 _2_ AGT  --- 5 ack 40 [0 0 0 0] ------- [2:0 1:0 32 0] [2 0] 0 0
r 0.532172240 _2_ RTR  --- 5 ack 40 [0 0 0 0] ------- [2:0 1:0 32 0] [2 0] 0 0
s 0.532172240 _2_ RTR  --- 5 ack 40 [0 0 0 0] ------- [2:0 1:0 30 1] [2 0] 0 0
r 0.534137445 _1_ AGT  --- 4 ack 40 [13a 1 2 800] ------- [2:0 1:0 30 1] [1 0] 1 0
s 0.534137445 _1_ AGT  --- 6 tcp 1040 [0 0 0 0] ------- [1:0 2:0 32 0] [3 0] 0 0
r 0.534137445 _1_ RTR  --- 6 tcp 1040 [0 0 0 0] ------- [1:0 2:0 32 0] [3 0] 0 0
s 0.534137445 _1_ AGT  --- 7 tcp 1040 [0 0 0 0] ------- [1:0 2:0 32 0] [4 0] 0 0
r 0.534137445 _1_ RTR  --- 7 tcp 1040 [0 0 0 0] ------- [1:0 2:0 32 0] [4 0] 0 0
s 0.534137445 _1_ RTR  --- 6 tcp 1040 [0 0 0 0] ------- [1:0 2:0 30 2] [3 0] 0 0
s 0.534137445 _1_ RTR  --- 7 tcp 1040 [0 0 0 0] ------- [1:0 2:0 30 2] [4 0] 0 0
r 0.544162649 _2_ AGT  --- 6 tcp 1040 [13a 2 1 800] ------- [1:0 2:0 30 2] [3 0] 1 0
s 0.544162649 _2_ AGT  --- 8 ack 40 [0 0 0 0] ------- [2:0 1:0 32 0] [3 0] 0 0
r 0.544162649 _2_ RTR  --- 8 ack 40 [0 0 0 0] ------- [2:0 1:0 32 0] [3 0] 0 0
s 0.544162649 _2_ RTR  --- 8 ack 40 [0 0 0 0] ------- [2:0 1:0 30 1] [3 0] 0 0
r 0.546007851 _1_ AGT  --- 5 ack 40 [13a 1 2 800] ------- [2:0 1:0 30 1] [2 0] 1 0
s 0.546007851 _1_ AGT  --- 9 tcp 1040 [0 0 0 0] ------- [1:0 2:0 32 0] [5 0] 0 0
r 0.546007851 _1_ RTR  --- 9 tcp 1040 [0 0 0 0] ------- [1:0 2:0 32 0] [5 0] 0 0
s 0.546007851 _1_ AGT  --- 10 tcp 1040 [0 0 0 0] ------- [1:0 2:0 32 0] [6 0] 0 0
r 0.546007851 _1_ RTR  --- 10 tcp 1040 [0 0 0 0] ------- [1:0 2:0 32 0] [6 0] 0 0
s 0.546007851 _1_ RTR  --- 9 tcp 1040 [0 0 0 0] ------- [1:0 2:0 30 2] [5 0] 0 0
s 0.546007851 _1_ RTR  --- 10 tcp 1040 [0 0 0 0] ------- [1:0 2:0 30 2] [6 0] 0 0
r 0.547853453 _1_ AGT  --- 8 ack 40 [13a 1 2 800] ------- [2:0 1:0 30 1] [3 0] 1 0
s 0.547853453 _1_ AGT  --- 11 tcp 1040 [0 0 0 0] ------- [1:0 2:0 32 0] [7 0] 0 0
r 0.547853453 _1_ RTR  --- 11 tcp 1040 [0 0 0 0] ------- [1:0 2:0 32 0] [7 0] 0 0
s 0.547853453 _1_ AGT  --- 12 tcp 1040 [0 0 0 0] ------- [1:0 2:0 32 0] [8 0] 0 0
r 0.547853453 _1_ RTR  --- 12 tcp 1040 [0 0 0 0] ------- [1:0 2:0 32 0] [8 0] 0 0
s 0.547853453 _1_ RTR  --- 11 tcp 1040 [0 0 0 0] ------- [1:0 2:0 30 2] [7 0] 0 0
s 0.547853453 _1_ RTR  --- 12 tcp 1040 [0 0 0 0] ------- [1:0 2:0 30 2] [8 0] 0 0
r 0.557878654 _2_ AGT  --- 7 tcp 1040 [13a 2 1 800] ------- [1:0 2:0 30 2] [4 0] 1 0
s 0.557878654 _2_ AGT  --- 13 ack 40 [0 0 0 0] ------- [2:0 1:0 32 0] [4 0] 0 0
r 0.557878654 _2_ RTR  --- 13 ack 40 [0 0 0 0] ------- [2:0 1:0 32 0] [4 0] 0 0
s 0.557878654 _2_ RTR  --- 13 ack 40 [0 0 0 0] ------- [2:0 1:0 30 1] [4 0] 0 0
r 0.559763853 _1_ AGT  --- 13 ack 40 [13a 1 2 800] ------- [2:0 1:0 30 1] [4 0] 1 0
s 0.559763853 _1_ AGT  --- 14 tcp 1040 [0 0 0 0] ------- [1:0 2:0 32 0] [9 0] 0 0
r 0.559763853 _1_ RTR  --- 14 tcp 1040 [0 0 0 0] ------- [1:0 2:0 32 0] [9 0] 0 0
s 0.559763853 _1_ AGT  --- 15 tcp 1040 [0 0 0 0] ------- [1:0 2:0 32 0] [10 0] 0 0
r 0.559763853 _1_ RTR  --- 15 tcp 1040 [0 0 0 0] ------- [1:0 2:0 32 0] [10 0] 0 0
s 0.559763853 _1_ RTR  --- 14 tcp 1040 [0 0 0 0] ------- [1:0 2:0 30 2] [9 0] 0 0
s 0.559763853 _1_ RTR  --- 15 tcp 1040 [0 0 0 0] ------- [1:0 2:0 30 2] [10 0] 0 0
r 0.569989052 _2_ AGT  --- 9 tcp 1040 [13a 2 1 800] ------- [1:0 2:0 30 2] [5 0] 1 0
s 0.569989052 _2_ AGT  --- 16 ack 40 [0 0 0 0] ------- [2:0 1:0 32 0] [5 0] 0 0
r 0.569989052 _2_ RTR  --- 16 ack 40 [0 0 0 0] ------- [2:0 1:0 32 0] [5 0] 0 0
s 0.569989052 _2_ RTR  --- 16 ack 40 [0 0 0 0] ------- [2:0 1:0 30 1] [5 0] 0 0
r 0.580214647 _2_ AGT  --- 10 tcp 1040 [13a 2 1 800] ------- [1:0 2:0 30 2] [6 0] 1 0
s 0.580214647 _2_ AGT  --- 17 ack 40 [0 0 0 0] ------- [2:0 1:0 32 0] [6 0] 0 0
r 0.580214647 _2_ RTR  --- 17 ack 40 [0 0 0 0] ------- [2:0 1:0 32 0] [6 0] 0 0
s 0.580214647 _2_ RTR  --- 17 ack 40 [0 0 0 0] ------- [2:0 1:0 30 1] [6 0] 0 0
r 0.582219842 _1_ AGT  --- 16 ack 40 [13a 1 2 800] ------- [2:0 1:0 30 1] [5 0] 1 0
s 0.582219842 _1_ AGT  --- 18 tcp 1040 [0 0 0 0] ------- [1:0 2:0 32 0] [11 0] 0 0
r 0.582219842 _1_ RTR  --- 18 tcp 1040 [0 0 0 0] ------- [1:0 2:0 32 0] [11 0] 0 0
s 0.582219842 _1_ AGT  --- 19 tcp 1040 [0 0 0 0] ------- [1:0 2:0 32 0] [12 0] 0 0
r 0.582219842 _1_ RTR  --- 19 tcp 1040 [0 0 0 0] ------- [1:0 2:0 32 0] [12 0] 0 0
s 0.582219842 _1_ RTR  --- 18 tcp 1040 [0 0 0 0] ------- [1:0 2:0 30 2] [11 0] 0 0
s 0.582219842 _1_ RTR  --- 19 tcp 1040 [0 0 0 0] ------- [1:0 2:0 30 2] [12 0] 0 0
r 0.584405435 _1_ AGT  --- 17 ack 40 [13a 1 2 800] ------- [2:0 1:0 30 1] [6 0] 1 0
s 0.584405435 _1_ AGT  --- 20 tcp 1040 [0 0 0 0] ------- [1:0 2:0 32 0] [13 0] 0 0
r 0.584405435 _1_ RTR  --- 20 tcp 1040 [0 0 0 0] ------- [1:0 2:0 32 0] [13 0] 0 0
s 0.584405435 _1_ AGT  --- 21 tcp 1040 [0 0 0 0] ------- [1:0 2:0 32 0] [14 0] 0 0
r 0.584405435 _1_ RTR  --- 21 tcp 1040 [0 0 0 0] ------- [1:0 2:0 32 0] [14 0] 0 0
s 0.584405435 _1_ RTR  --- 20 tcp 1040 [0 0 0 0] ------- [1:0 2:0 30 2] [13 0] 0 0
s 0.584405435 _1_ RTR  --- 21 tcp 1040 [0 0 0 0] ------- [1:0 2:0 30 2] [14 0] 0 0
r 0.594250629 _2_ AGT  --- 11 tcp 1040 [13a 2 1 800] ------- [1:0 2:0 30 2] [7 0] 1 0
s 0.594250629 _2_ AGT  --- 22 ack 40 [0 0 0 0] ------- [2:0 1:0 32 0] [7 0] 0 0
r 0.594250629 _2_ RTR  --- 22 ack 40 [0 0 0 0] ------- [2:0 1:0 32 0] [7 0] 0 0
s 0.594250629 _2_ RTR  --- 22 ack 40 [0 0 0 0] ------- [2:0 1:0 30 1] [7 0] 0 0
r 0.596115821 _1_ AGT  --- 22 ack 40 [13a 1 2 800] ------- [2:0 1:0 30 1] [7 0] 1 0
s 0.596115821 _1_ AGT  --- 23 tcp 1040 [0 0 0 0] ------- [1:0 2:0 32 0] [15 0] 0 0
r 0.596115821 _1_ RTR  --- 23 tcp 1040 [0 0 0 0] ------- [1:0 2:0 32 0] [15 0] 0 0
s 0.596115821 _1_ AGT  --- 24 tcp 1040 [0 0 0 0] ------- [1:0 2:0 32 0] [16 0] 0 0
r 0.596115821 _1_ RTR  --- 24 tcp 1040 [0 0 0 0] ------- [1:0 2:0 32 0] [16 0] 0 0
s 0.596115821 _1_ RTR  --- 23 tcp 1040 [0 0 0 0] ------- [1:0 2:0 30 2] [15 0] 0 0
s 0.596115821 _1_ RTR  --- 24 tcp 1040 [0 0 0 0] ------- [1:0 2:0 30 2] [16 0] 0 0
r 0.606221012 _2_ AGT  --- 12 tcp 1040 [13a 2 1 800] ------- [1:0 2:0 30 2] [8 0] 1 0
s 0.606221012 _2_ AGT  --- 25 ack 40 [0 0 0 0] ------- [2:0 1:0 32 0] [8 0] 0 0
r 0.606221012 _2_ RTR  --- 25 ack 40 [0 0 0 0] ------- [2:0 1:0 32 0] [8 0] 0 0
s 0.606221012 _2_ RTR  --- 25 ack 40 [0 0 0 0] ------- [2:0 1:0 30 1] [8 0] 0 0
r 0.608146202 _1_ AGT  --- 25 ack 40 [13a 1 2 800] ------- [2:0 1:0 30 1] [8 0] 1 0
s 0.608146202 _1_ AGT  --- 26 tcp 1040 [0 0 0 0] ------- [1:0 2:0 32 0] [17 0] 0 0
r 0.608146202 _1_ RTR  --- 26 tcp 1040 [0 0 0 0] ------- [1:0 2:0 32 0] [17 0] 0 0
s 0.608146202 _1_ AGT  --- 27 tcp 1040 [0 0 0 0] ------- [1:0 2:0 32 0] [18 0] 0 0
r 0.608146202 _1_ RTR  --- 27 tcp 1040 [0 0 0 0] ------- [1:0 2:0 32 0] [18 0] 0 0
s 0.608146202 _1_ RTR  --- 26 tcp 1040 [0 0 0 0] ------- [1:0 2:0 30 2] [17 0] 0 0
s 0.608146202 _1_ RTR  --- 27 tcp 1040 [0 0 0 0] ------- [1:0 2:0 30 2] [18 0] 0 0
r 0.618031391 _2_ AGT  --- 14 tcp 1040 [13a 2 1 800] ------- [1:0 2:0 30 2] [9 0] 1 0
s 0.618031391 _2_ AGT  --- 28 ack 40 [0 0 0 0] ------- [2:0 1:0 32 0] [9 0] 0 0
r 0.618031391 _2_ RTR  --- 28 ack 40 [0 0 0 0] ------- [2:0 1:0 32 0] [9 0] 0 0
s 0.618031391 _2_ RTR  --- 28 ack 40 [0 0 0 0] ------- [2:0 1:0 30 1] [9 0] 0 0
r 0.619896579 _1_ AGT  --- 28 ack 40 [13a 1 2 800] ------- [2:0 1:0 30 1] [9 0] 1 0
s 0.619896579 _1_ AGT  --- 29 tcp 1040 [0 0 0 0] ------- [1:0 2:0 32 0] [19 0] 0 0
r 0.619896579 _1_ RTR  --- 29 tcp 1040 [0 0 0 0] ------- [1:0 2:0 32 0] [19 0] 0 0
s 0.619896579 _1_ AGT  --- 30 tcp 1040 [0 0 0 0] ------- [1:0 2:0 32 0] [20 0] 0 0
r 0.619896579 _1_ RTR  --- 30 tcp 1040 [0 0 0 0] ------- [1:0 2:0 32 0] [20 0] 0 0
s 0.619896579 _1_ RTR  --- 29 tcp 1040 [0 0 0 0] ------- [1:0 2:0 30 2] [19 0] 0 0
s 0.619896579 _1_ RTR  --- 30 tcp 1040 [0 0 0 0] ------- [1:0 2:0 30 2] [20 0] 0 0
r 0.629981766 _2_ AGT  --- 15 tcp 1040 [13a 2 1 800] ------- [1:0 2:0 30 2] [10 0] 1 0
s 0.629981766 _2_ AGT  --- 31 ack 40 [0 0 0 0] ------- [2:0 1:0 32 0] [10 0] 0 0
r 0.629981766 _2_ RTR  --- 31 ack 40 [0 0 0 0] ------- [2:0 1:0 32 0] [10 0] 0 0
s 0.629981766 _2_ RTR  --- 31 ack 40 [0 0 0 0] ------- [2:0 1:0 30 1] [10 0] 0 0
r 0.631906951 _1_ AGT  --- 31 ack 40 [13a 1 2 800] ------- [2:0 1:0 30 1] [10 0] 1 0
s 0.631906951 _1_ AGT  --- 32 tcp 1040 [0 0 0 0] ------- [1:0 2:0 32 0] [21 0] 0 0
r 0.631906951 _1_ RTR  --- 32 tcp 1040 [0 0 0 0] ------- [1:0 2:0 32 0] [21 0] 0 0
s 0.631906951 _1_ AGT  --- 33 tcp 1040 [0 0 0 0] ------- [1:0 2:0 32 0] [22 0] 0 0
r 0.631906951 _1_ RTR  --- 33 tcp 1040 [0 0 0 0] ------- [1:0 2:0 32 0] [22 0] 0 0
s 0.631906951 _1_ RTR  --- 32 tcp 1040 [0 0 0 0] ------- [1:0 2:0 30 2] [21 0] 0 0
s 0.631906951 _1_ RTR  --- 33 tcp 1040 [0 0 0 0] ------- [1:0 2:0 30 2] [22 0] 0 0
r 0.642172136 _2_ AGT  --- 18 tcp 1040 [13a 2 1 800] ------- [1:0 2:0 30 2] [11 0] 1 0
s 0.642172136 _2_ AGT  --- 34 ack 40 [0 0 0 0] ------- [2:0 1:0 32 0] [11 0] 0 0
r 0.642172136 _2_ RTR  --- 34 ack 40 [0 0 0 0] ------- [2:0 1:0 32 0] [11 0] 0 0
s 0.642172136 _2_ RTR  --- 34 ack 40 [0 0 0 0] ------- [2:0 1:0 30 1] [11 0] 0 0
r 0.644197319 _1_ AGT  --- 34 ack 40 [13a 1 2 800] ------- [2:0 1:0 30 1] [11 0] 1 0
s 0.644197319 _1_ AGT  --- 35 tcp 1040 [0 0 0 0] ------- [1:0 2:0 32 0] [23 0] 0 0
r 0.644197319 _1_ RTR  --- 35 tcp 1040 [0 0 0 0] ------- [1:0 2:0 32 0] [23 0] 0 0
s 0.644197319 _1_ AGT  --- 36 tcp 1040 [0 0 0 0] ------- [1:0 2:0 32 0] [24 0] 0 0
r 0.644197319 _1_ RTR  --- 36 tcp 1040 [0 0 0 0] ------- [1:0 2:0 32 0] [24 0] 0 0
s 0.644197319 _1_ RTR  --- 35 tcp 1040 [0 0 0 0] ------- [1:0 2:0 30 2] [23 0] 0 0
s 0.644197319 _1_ RTR  --- 36 tcp 1040 [0 0 0 0] ------- [1:0 2:0 30 2] [24 0] 0 0
r 0.654422502 _2_ AGT  --- 19 tcp 1040 [13a 2 1 800] ------- [1:0 2:0 30 2] [12 0] 1 0
s 0.654422502 _2_ AGT  --- 37 ack 40 [0 0 0 0] ------- [2:0 1:0 32 0] [12 0] 0 0
r 0.654422502 _2_ RTR  --- 37 ack 40 [0 0 0 0] ------- [2:0 1:0 32 0] [12 0] 0 0
s 0.654422502 _2_ RTR  --- 37 ack 40 [0 0 0 0] ------- [2:0 1:0 30 1] [12 0] 0 0
r 0.656367682 _1_ AGT  --- 37 ack 40 [13a 1 2 800] ------- [2:0 1:0 30 1] [12 0] 1 0
s 0.656367682 _1_ AGT  --- 38 tcp 1040 [0 0 0 0] ------- [1:0 2:0 32 0] [25 0] 0 0
r 0.656367682 _1_ RTR  --- 38 tcp 1040 [0 0 0 0] ------- [1:0 2:0 32 0] [25 0] 0 0
s 0.656367682 _1_ AGT  --- 39 tcp 1040 [0 0 0 0] ------- [1:0 2:0 32 0] [26 0] 0 0
r 0.656367682 _1_ RTR  --- 39 tcp 1040 [0 0 0 0] ------- [1:0 2:0 32 0] [26 0] 0 0
s 0.656367682 _1_ RTR  --- 38 tcp 1040 [0 0 0 0] ------- [1:0 2:0 30 2] [25 0] 0 0
s 0.656367682 _1_ RTR  --- 39 tcp 1040 [0 0 0 0] ------- [1:0 2:0 30 2] [26 0] 0 0
r 0.666432863 _2_ AGT  --- 20 tcp 1040 [13a 2 1 800] ------- [1:0 2:0 30 2] [13 0] 1 0
s 0.666432863 _2_ AGT  --- 40 ack 40 [0 0 0 0] ------- [2:0 1:0 32 0] [13 0] 0 0
r 0.666432863 _2_ RTR  --- 40 ack 40 [0 0 0 0] ------- [2:0 1:0 32 0] [13 0] 0 0
s 0.666432863 _2_ RTR  --- 40 ack 40 [0 0 0 0] ------- [2:0 1:0 30 1] [13 0] 0 0
r 0.668538041 _1_ AGT  --- 40 ack 40 [13a 1 2 800] ------- [2:0 1:0 30 1] [13 0] 1 0
s 0.668538041 _1_ AGT  --- 41 tcp 1040 [0 0 0 0] ------- [1:0 2:0 32 0] [27 0] 0 0
r 0.668538041 _1_ RTR  --- 41 tcp 1040 [0 0 0 0] ------- [1:0 2:0 32 0] [27 0] 0 0
s 0.668538041 _1_ AGT  --- 42 tcp 1040 [0 0 0 0] ------- [1:0 2:0 32 0] [28 0] 0 0
r 0.668538041 _1_ RTR  --- 42 tcp 1040 [0 0 0 0] ------- [1:0 2:0 32 0] [28 0] 0 0
s 0.668538041 _1_ RTR  --- 41 tcp 1040 [0 0 0 0] ------- [1:0 2:0 30 2] [27 0] 0 0
s 0.668538041 _1_ RTR  --- 42 tcp 1040 [0 0 0 0] ------- [1:0 2:0 30 2] [28 0] 0 0
r 0.678383219 _2_ AGT  --- 21 tcp 1040 [13a 2 1 800] ------- [1:0 2:0 30 2] [14 0] 1 0
s 0.678383219 _2_ AGT  --- 43 ack 40 [0 0 0 0] ------- [2:0 1:0 32 0] [14 0] 0 0
r 0.678383219 _2_ RTR  --- 43 ack 40 [0 0 0 0] ------- [2:0 1:0 32 0] [14 0] 0 0
s 0.678383219 _2_ RTR  --- 43 ack 40 [0 0 0 0] ------- [2:0 1:0 30 1] [14 0] 0 0
r 0.680388396 _1_ AGT  --- 43 ack 40 [13a 1 2 800] ------- [2:0 1:0 30 1] [14 0] 1 0
s 0.680388396 _1_ AGT  --- 44 tcp 1040 [0 0 0 0] ------- [1:0 2:0 32 0] [29 0] 0 0
r 0.680388396 _1_ RTR  --- 44 tcp 1040 [0 0 0 0] ------- [1:0 2:0 32 0] [29 0] 0 0
s 0.680388396 _1_ AGT  --- 45 tcp 1040 [0 0 0 0] ------- [1:0 2:0 32 0] [30 0] 0 0
r 0.680388396 _1_ RTR  --- 45 tcp 1040 [0 0 0 0] ------- [1:0 2:0 32 0] [30 0] 0 0
s 0.680388396 _1_ RTR  --- 44 tcp 1040 [0 0 0 0] ------- [1:0 2:0 30 2] [29 0] 0 0
s 0.680388396 _1_ RTR  --- 45 tcp 1040 [0 0 0 0] ------- [1:0 2:0 30 2] [30 0] 0 0
r 0.690333572 _2_ AGT  --- 23 tcp 1040 [13a 2 1 800] ------- [1:0 2:0 30 2] [15 0] 1 0
s 0.690333572 _2_ AGT  --- 46 ack 40 [0 0 0 0] ------- [2:0 1:0 32 0] [15 0] 0 0
r 0.690333572 _2_ RTR  --- 46 ack 40 [0 0 0 0] ------- [2:0 1:0 32 0] [15 0] 0 0
s 0.690333572 _2_ RTR  --- 46 ack 40 [0 0 0 0] ------- [2:0 1:0 30 1] [15 0] 0 0
M 0.70000 1 (306.06, 21.68, 0.00), (45.00, 285.00), 60.00
M 0.70000 3 (205.88, 227.44, 0.00), (145.00, 385.00), 60.00
r 0.700159138 _2_ AGT  --- 24 tcp 1040 [13a 2 1 800] ------- [1:0 2:0 30 2] [16 0] 1 0
s 0.700159138 _2_ AGT  --- 47 ack 40 [0 0 0 0] ------- [2:0 1:0 32 0] [16 0] 0 0
r 0.700159138 _2_ RTR  --- 47 ack 40 [0 0 0 0] ------- [2:0 1:0 32 0] [16 0] 0 0
s 0.700159138 _2_ RTR  --- 47 ack 40 [0 0 0 0] ------- [2:0 1:0 30 1] [16 0] 0 0
r 0.710204702 _2_ AGT  --- 26 tcp 1040 [13a 2 1 800] ------- [1:0 2:0 30 2] [17 0] 1 0
s 0.710204702 _2_ AGT  --- 48 ack 40 [0 0 0 0] ------- [2:0 1:0 32 0] [17 0] 0 0
r 0.710204702 _2_ RTR  --- 48 ack 40 [0 0 0 0] ------- [2:0 1:0 32 0] [17 0] 0 0
s 0.710204702 _2_ RTR  --- 48 ack 40 [0 0 0 0] ------- [2:0 1:0 30 1] [17 0] 0 0
r 0.712189877 _1_ AGT  --- 46 ack 40 [13a 1 2 800] ------- [2:0 1:0 30 1] [15 0] 1 0
s 0.712189877 _1_ AGT  --- 49 tcp 1040 [0 0 0 0] ------- [1:0 2:0 32 0] [31 0] 0 0
r 0.712189877 _1_ RTR  --- 49 tcp 1040 [0 0 0 0] ------- [1:0 2:0 32 0] [31 0] 0 0
s 0.712189877 _1_ AGT  --- 50 tcp 1040 [0 0 0 0] ------- [1:0 2:0 32 0] [32 0] 0 0
r 0.712189877 _1_ RTR  --- 50 tcp 1040 [0 0 0 0] ------- [1:0 2:0 32 0] [32 0] 0 0
s 0.712189877 _1_ RTR  --- 49 tcp 1040 [0 0 0 0] ------- [1:0 2:0 30 2] [31 0] 0 0
s 0.712189877 _1_ RTR  --- 50 tcp 1040 [0 0 0 0] ------- [1:0 2:0 30 2] [32 0] 0 0
r 0.723121838 _2_ AGT  --- 27 tcp 1040 [13a 2 1 800] ------- [1:0 2:0 30 2] [18 0] 1 0
s 0.723121838 _2_ AGT  --- 51 ack 40 [0 0 0 0] ------- [2:0 1:0 32 0] [18 0] 0 0
r 0.723121838 _2_ RTR  --- 51 ack 40 [0 0 0 0] ------- [2:0 1:0 32 0] [18 0] 0 0
s 0.723121838 _2_ RTR  --- 51 ack 40 [0 0 0 0] ------- [2:0 1:0 30 1] [18 0] 0 0
r 0.733247410 _2_ AGT  --- 29 tcp 1040 [13a 2 1 800] ------- [1:0 2:0 30 2] [19 0] 1 0
s 0.733247410 _2_ AGT  --- 52 ack 40 [0 0 0 0] ------- [2:0 1:0 32 0] [19 0] 0 0
r 0.733247410 _2_ RTR  --- 52 ack 40 [0 0 0 0] ------- [2:0 1:0 32 0] [19 0] 0 0
s 0.733247410 _2_ RTR  --- 52 ack 40 [0 0 0 0] ------- [2:0 1:0 30 1] [19 0] 0 0
r 0.743072986 _2_ AGT  --- 30 tcp 1040 [13a 2 1 800] ------- [1:0 2:0 30 2] [20 0] 1 0
s 0.743072986 _2_ AGT  --- 53 ack 40 [0 0 0 0] ------- [2:0 1:0 32 0] [20 0] 0 0
r 0.743072986 _2_ RTR  --- 53 ack 40 [0 0 0 0] ------- [2:0 1:0 32 0] [20 0] 0 0
s 0.743072986 _2_ RTR  --- 53 ack 40 [0 0 0 0] ------- [2:0 1:0 30 1] [20 0] 0 0
r 0.753138566 _2_ AGT  --- 32 tcp 1040 [13a 2 1 800] ------- [1:0 2:0 30 2] [21 0] 1 0
s 0.753138566 _2_ AGT  --- 54 ack 40 [0 0 0 0] ------- [2:0 1:0 32 0] [21 0] 0 0
r 0.753138566 _2_ RTR  --- 54 ack 40 [0 0 0 0] ------- [2:0 1:0 32 0] [21 0] 0 0
s 0.753138566 _2_ RTR  --- 54 ack 40 [0 0 0 0] ------- [2:0 1:0 30 1] [21 0] 0 0
r 0.755143753 _1_ AGT  --- 47 ack 40 [13a 1 2 800] ------- [2:0 1:0 30 1] [16 0] 1 0
s 0.755143753 _1_ AGT  --- 55 tcp 1040 [0 0 0 0] ------- [1:0 2:0 32 0] [33 0] 0 0
r 0.755143753 _1_ RTR  --- 55 tcp 1040 [0 0 0 0] ------- [1:0 2:0 32 0] [33 0] 0 0
s 0.755143753 _1_ AGT  --- 56 tcp 1040 [0 0 0 0] ------- [1:0 2:0 32 0] [34 0] 0 0
r 0.755143753 _1_ RTR  --- 56 tcp 1040 [0 0 0 0] ------- [1:0 2:0 32 0] [34 0] 0 0
s 0.755143753 _1_ RTR  --- 55 tcp 1040 [0 0 0 0] ------- [1:0 2:0 30 2] [33 0] 0 0
s 0.755143753 _1_ RTR  --- 56 tcp 1040 [0 0 0 0] ------- [1:0 2:0 30 2] [34 0] 0 0
r 0.765088941 _2_ AGT  --- 33 tcp 1040 [13a 2 1 800] ------- [1:0 2:0 30 2] [22 0] 1 0
s 0.765088941 _2_ AGT  --- 57 ack 40 [0 0 0 0] ------- [2:0 1:0 32 0] [22 0] 0 0
r 0.765088941 _2_ RTR  --- 57 ack 40 [0 0 0 0] ------- [2:0 1:0 32 0] [22 0] 0 0
s 0.765088941 _2_ RTR  --- 57 ack 40 [0 0 0 0] ------- [2:0 1:0 30 1] [22 0] 0 0
r 0.774934528 _2_ AGT  --- 35 tcp 1040 [13a 2 1 800] ------- [1:0 2:0 30 2] [23 0] 1 0
s 0.774934528 _2_ AGT  --- 58 ack 40 [0 0 0 0] ------- [2:0 1:0 32 0] [23 0] 0 0
r 0.774934528 _2_ RTR  --- 58 ack 40 [0 0 0 0] ------- [2:0 1:0 32 0] [23 0] 0 0
s 0.774934528 _2_ RTR  --- 58 ack 40 [0 0 0 0] ------- [2:0 1:0 30 1] [23 0] 0 0
r 0.776899722 _1_ AGT  --- 48 ack 40 [13a 1 2 800] ------- [2:0 1:0 30 1] [17 0] 1 0
s 0.776899722 _1_ AGT  --- 59 tcp 1040 [0 0 0 0] ------- [1:0 2:0 32 0] [35 0] 0 0
r 0.776899722 _1_ RTR  --- 59 tcp 1040 [0 0 0 0] ------- [1:0 2:0 32 0] [35 0] 0 0
s 0.776899722 _1_ AGT  --- 60 tcp 1040 [0 0 0 0] ------- [1:0 2:0 32 0] [36 0] 0 0
r 0.776899722 _1_ RTR  --- 60 tcp 1040 [0 0 0 0] ------- [1:0 2:0 32 0] [36 0] 0 0
s 0.776899722 _1_ RTR  --- 59 tcp 1040 [0 0 0 0] ------- [1:0 2:0 30 2] [35 0] 0 0
s 0.776899722 _1_ RTR  --- 60 tcp 1040 [0 0 0 0] ------- [1:0 2:0 30 2] [36 0] 0 0
r 0.778965313 _1_ AGT  --- 51 ack 40 [13a 1 2 800] ------- [2:0 1:0 30 1] [18 0] 1 0
s 0.778965313 _1_ AGT  --- 61 tcp 1040 [0 0 0 0] ------- [1:0 2:0 32 0] [37 0] 0 0
r 0.778965313 _1_ RTR  --- 61 tcp 1040 [0 0 0 0] ------- [1:0 2:0 32 0] [37 0] 0 0
s 0.778965313 _1_ AGT  --- 62 tcp 1040 [0 0 0 0] ------- [1:0 2:0 32 0] [38 0] 0 0
r 0.778965313 _1_ RTR  --- 62 tcp 1040 [0 0 0 0] ------- [1:0 2:0 32 0] [38 0] 0 0
s 0.778965313 _1_ RTR  --- 61 tcp 1040 [0 0 0 0] ------- [1:0 2:0 30 2] [37 0] 0 0
s 0.778965313 _1_ RTR  --- 62 tcp 1040 [0 0 0 0] ------- [1:0 2:0 30 2] [38 0] 0 0
r 0.788890508 _2_ AGT  --- 36 tcp 1040 [13a 2 1 800] ------- [1:0 2:0 30 2] [24 0] 1 0
s 0.788890508 _2_ AGT  --- 63 ack 40 [0 0 0 0] ------- [2:0 1:0 32 0] [24 0] 0 0
r 0.788890508 _2_ RTR  --- 63 ack 40 [0 0 0 0] ------- [2:0 1:0 32 0] [24 0] 0 0
s 0.788890508 _2_ RTR  --- 63 ack 40 [0 0 0 0] ------- [2:0 1:0 30 1] [24 0] 0 0
r 0.790735705 _1_ AGT  --- 52 ack 40 [13a 1 2 800] ------- [2:0 1:0 30 1] [19 0] 1 0
s 0.790735705 _1_ AGT  --- 64 tcp 1040 [0 0 0 0] ------- [1:0 2:0 32 0] [39 0] 0 0
r 0.790735705 _1_ RTR  --- 64 tcp 1040 [0 0 0 0] ------- [1:0 2:0 32 0] [39 0] 0 0
s 0.790735705 _1_ RTR  --- 64 tcp 1040 [0 0 0 0] ------- [1:0 2:0 30 2] [39 0] 0 0
r 0.792601301 _1_ AGT  --- 53 ack 40 [13a 1 2 800] ------- [2:0 1:0 30 1] [20 0] 1 0
s 0.792601301 _1_ AGT  --- 65 tcp 1040 [0 0 0 0] ------- [1:0 2:0 32 0] [40 0] 0 0
r 0.792601301 _1_ RTR  --- 65 tcp 1040 [0 0 0 0] ------- [1:0 2:0 32 0] [40 0] 0 0
s 0.792601301 _1_ RTR  --- 65 tcp 1040 [0 0 0 0] ------- [1:0 2:0 30 2] [40 0] 0 0
r 0.802666499 _2_ AGT  --- 38 tcp 1040 [13a 2 1 800] ------- [1:0 2:0 30 2] [25 0] 1 0
s 0.802666499 _2_ AGT  --- 66 ack 40 [0 0 0 0] ------- [2:0 1:0 32 0] [25 0] 0 0
r 0.802666499 _2_ RTR  --- 66 ack 40 [0 0 0 0] ------- [2:0 1:0 32 0] [25 0] 0 0
s 0.802666499 _2_ RTR  --- 66 ack 40 [0 0 0 0] ------- [2:0 1:0 30 1] [25 0] 0 0
r 0.812612100 _2_ AGT  --- 39 tcp 1040 [13a 2 1 800] ------- [1:0 2:0 30 2] [26 0] 1 0
s 0.812612100 _2_ AGT  --- 67 ack 40 [0 0 0 0] ------- [2:0 1:0 32 0] [26 0] 0 0
r 0.812612100 _2_ RTR  --- 67 ack 40 [0 0 0 0] ------- [2:0 1:0 32 0] [26 0] 0 0
s 0.812612100 _2_ RTR  --- 67 ack 40 [0 0 0 0] ------- [2:0 1:0 30 1] [26 0] 0 0
r 0.814537304 _1_ AGT  --- 54 ack 40 [13a 1 2 800] ------- [2:0 1:0 30 1] [21 0] 1 0
s 0.814537304 _1_ AGT  --- 68 tcp 1040 [0 0 0 0] ------- [1:0 2:0 32 0] [41 0] 0 0
r 0.814537304 _1_ RTR  --- 68 tcp 1040 [0 0 0 0] ------- [1:0 2:0 32 0] [41 0] 0 0
s 0.814537304 _1_ RTR  --- 68 tcp 1040 [0 0 0 0] ------- [1:0 2:0 30 2] [41 0] 0 0
r 0.817308909 _1_ AGT  --- 57 ack 40 [13a 1 2 800] ------- [2:0 1:0 30 1] [22 0] 1 0
s 0.817308909 _1_ AGT  --- 69 tcp 1040 [0 0 0 0] ------- [1:0 2:0 32 0] [42 0] 0 0
r 0.817308909 _1_ RTR  --- 69 tcp 1040 [0 0 0 0] ------- [1:0 2:0 32 0] [42 0] 0 0
s 0.817308909 _1_ RTR  --- 69 tcp 1040 [0 0 0 0] ------- [1:0 2:0 30 2] [42 0] 0 0
r 0.819334516 _1_ AGT  --- 58 ack 40 [13a 1 2 800] ------- [2:0 1:0 30 1] [23 0] 1 0
s 0.819334516 _1_ AGT  --- 70 tcp 1040 [0 0 0 0] ------- [1:0 2:0 32 0] [43 0] 0 0
r 0.819334516 _1_ RTR  --- 70 tcp 1040 [0 0 0 0] ------- [1:0 2:0 32 0] [43 0] 0 0
s 0.819334516 _1_ RTR  --- 70 tcp 1040 [0 0 0 0] ------- [1:0 2:0 30 2] [43 0] 0 0
r 0.821220123 _1_ AGT  --- 63 ack 40 [13a 1 2 800] ------- [2:0 1:0 30 1] [24 0] 1 0
s 0.821220123 _1_ AGT  --- 71 tcp 1040 [0 0 0 0] ------- [1:0 2:0 32 0] [44 0] 0 0
r 0.821220123 _1_ RTR  --- 71 tcp 1040 [0 0 0 0] ------- [1:0 2:0 32 0] [44 0] 0 0
s 0.821220123 _1_ RTR  --- 71 tcp 1040 [0 0 0 0] ------- [1:0 2:0 30 2] [44 0] 0 0
r 0.823385730 _1_ AGT  --- 66 ack 40 [13a 1 2 800] ------- [2:0 1:0 30 1] [25 0] 1 0
s 0.823385730 _1_ AGT  --- 72 tcp 1040 [0 0 0 0] ------- [1:0 2:0 32 0] [45 0] 0 0
r 0.823385730 _1_ RTR  --- 72 tcp 1040 [0 0 0 0] ------- [1:0 2:0 32 0] [45 0] 0 0
s 0.823385730 _1_ RTR  --- 72 tcp 1040 [0 0 0 0] ------- [1:0 2:0 30 2] [45 0] 0 0
r 0.833250937 _2_ AGT  --- 41 tcp 1040 [13a 2 1 800] ------- [1:0 2:0 30 2] [27 0] 1 0
s 0.833250937 _2_ AGT  --- 73 ack 40 [0 0 0 0] ------- [2:0 1:0 32 0] [27 0] 0 0
r 0.833250937 _2_ RTR  --- 73 ack 40 [0 0 0 0] ------- [2:0 1:0 32 0] [27 0] 0 0
s 0.833250937 _2_ RTR  --- 73 ack 40 [0 0 0 0] ------- [2:0 1:0 30 1] [27 0] 0 0
r 0.843196549 _2_ AGT  --- 42 tcp 1040 [13a 2 1 800] ------- [1:0 2:0 30 2] [28 0] 1 0
s 0.843196549 _2_ AGT  --- 74 ack 40 [0 0 0 0] ------- [2:0 1:0 32 0] [28 0] 0 0
r 0.843196549 _2_ RTR  --- 74 ack 40 [0 0 0 0] ------- [2:0 1:0 32 0] [28 0] 0 0
s 0.843196549 _2_ RTR  --- 74 ack 40 [0 0 0 0] ------- [2:0 1:0 30 1] [28 0] 0 0
r 0.853082164 _2_ AGT  --- 44 tcp 1040 [13a 2 1 800] ------- [1:0 2:0 30 2] [29 0] 1 0
s 0.853082164 _2_ AGT  --- 75 ack 40 [0 0 0 0] ------- [2:0 1:0 32 0] [29 0] 0 0
r 0.853082164 _2_ RTR  --- 75 ack 40 [0 0 0 0] ------- [2:0 1:0 32 0] [29 0] 0 0
s 0.853082164 _2_ RTR  --- 75 ack 40 [0 0 0 0] ------- [2:0 1:0 30 1] [29 0] 0 0
r 0.855287379 _1_ AGT  --- 67 ack 40 [13a 1 2 800] ------- [2:0 1:0 30 1] [26 0] 1 0
s 0.855287379 _1_ AGT  --- 76 tcp 1040 [0 0 0 0] ------- [1:0 2:0 32 0] [46 0] 0 0
r 0.855287379 _1_ RTR  --- 76 tcp 1040 [0 0 0 0] ------- [1:0 2:0 32 0] [46 0] 0 0
s 0.855287379 _1_ RTR  --- 76 tcp 1040 [0 0 0 0] ------- [1:0 2:0 30 2] [46 0] 0 0
r 0.857232999 _1_ AGT  --- 73 ack 40 [13a 1 2 800] ------- [2:0 1:0 30 1] [27 0] 1 0
s 0.857232999 _1_ AGT  --- 77 tcp 1040 [0 0 0 0] ------- [1:0 2:0 32 0] [47 0] 0 0
r 0.857232999 _1_ RTR  --- 77 tcp 1040 [0 0 0 0] ------- [1:0 2:0 32 0] [47 0] 0 0
s 0.857232999 _1_ RTR  --- 77 tcp 1040 [0 0 0 0] ------- [1:0 2:0 30 2] [47 0] 0 0
r 0.867138214 _2_ AGT  --- 45 tcp 1040 [13a 2 1 800] ------- [1:0 2:0 30 2] [30 0] 1 0
s 0.867138214 _2_ AGT  --- 78 ack 40 [0 0 0 0] ------- [2:0 1:0 32 0] [30 0] 0 0
r 0.867138214 _2_ RTR  --- 78 ack 40 [0 0 0 0] ------- [2:0 1:0 32 0] [30 0] 0 0
s 0.867138214 _2_ RTR  --- 78 ack 40 [0 0 0 0] ------- [2:0 1:0 30 1] [30 0] 0 0
r 0.877403839 _2_ AGT  --- 49 tcp 1040 [13a 2 1 800] ------- [1:0 2:0 30 2] [31 0] 1 0
s 0.877403839 _2_ AGT  --- 79 ack 40 [0 0 0 0] ------- [2:0 1:0 32 0] [31 0] 0 0
r 0.877403839 _2_ RTR  --- 79 ack 40 [0 0 0 0] ------- [2:0 1:0 32 0] [31 0] 0 0
s 0.877403839 _2_ RTR  --- 79 ack 40 [0 0 0 0] ------- [2:0 1:0 30 1] [31 0] 0 0
r 0.879309060 _1_ AGT  --- 74 ack 40 [13a 1 2 800] ------- [2:0 1:0 30 1] [28 0] 1 0
s 0.879309060 _1_ AGT  --- 80 tcp 1040 [0 0 0 0] ------- [1:0 2:0 32 0] [48 0] 0 0
r 0.879309060 _1_ RTR  --- 80 tcp 1040 [0 0 0 0] ------- [1:0 2:0 32 0] [48 0] 0 0
s 0.879309060 _1_ RTR  --- 80 tcp 1040 [0 0 0 0] ------- [1:0 2:0 30 2] [48 0] 0 0
r 0.881434688 _1_ AGT  --- 75 ack 40 [13a 1 2 800] ------- [2:0 1:0 30 1] [29 0] 1 0
s 0.881434688 _1_ AGT  --- 81 tcp 1040 [0 0 0 0] ------- [1:0 2:0 32 0] [49 0] 0 0
r 0.881434688 _1_ RTR  --- 81 tcp 1040 [0 0 0 0] ------- [1:0 2:0 32 0] [49 0] 0 0
s 0.881434688 _1_ RTR  --- 81 tcp 1040 [0 0 0 0] ------- [1:0 2:0 30 2] [49 0] 0 0
r 0.891419910 _2_ AGT  --- 50 tcp 1040 [13a 2 1 800] ------- [1:0 2:0 30 2] [32 0] 1 0
s 0.891419910 _2_ AGT  --- 82 ack 40 [0 0 0 0] ------- [2:0 1:0 32 0] [32 0] 0 0
r 0.891419910 _2_ RTR  --- 82 ack 40 [0 0 0 0] ------- [2:0 1:0 32 0] [32 0] 0 0
s 0.891419910 _2_ RTR  --- 82 ack 40 [0 0 0 0] ------- [2:0 1:0 30 1] [32 0] 0 0
r 0.893385135 _1_ AGT  --- 78 ack 40 [13a 1 2 800] ------- [2:0 1:0 30 1] [30 0] 1 0
s 0.893385135 _1_ AGT  --- 83 tcp 1040 [0 0 0 0] ------- [1:0 2:0 32 0] [50 0] 0 0
r 0.893385135 _1_ RTR  --- 83 tcp 1040 [0 0 0 0] ------- [1:0 2:0 32 0] [50 0] 0 0
s 0.893385135 _1_ RTR  --- 83 tcp 1040 [0 0 0 0] ------- [1:0 2:0 30 2] [50 0] 0 0
r 0.903370361 _2_ AGT  --- 55 tcp 1040 [13a 2 1 800] ------- [1:0 2:0 30 2] [33 0] 1 0
s 0.903370361 _2_ AGT  --- 84 ack 40 [0 0 0 0] ------- [2:0 1:0 32 0] [33 0] 0 0
r 0.903370361 _2_ RTR  --- 84 ack 40 [0 0 0 0] ------- [2:0 1:0 32 0] [33 0] 0 0
s 0.903370361 _2_ RTR  --- 84 ack 40 [0 0 0 0] ------- [2:0 1:0 30 1] [33 0] 0 0
r 0.913235998 _2_ AGT  --- 56 tcp 1040 [13a 2 1 800] ------- [1:0 2:0 30 2] [34 0] 1 0
s 0.913235998 _2_ AGT  --- 85 ack 40 [0 0 0 0] ------- [2:0 1:0 32 0] [34 0] 0 0
r 0.913235998 _2_ RTR  --- 85 ack 40 [0 0 0 0] ------- [2:0 1:0 32 0] [34 0] 0 0
s 0.913235998 _2_ RTR  --- 85 ack 40 [0 0 0 0] ------- [2:0 1:0 30 1] [34 0] 0 0
r 0.915201229 _1_ AGT  --- 79 ack 40 [13a 1 2 800] ------- [2:0 1:0 30 1] [31 0] 1 0
s 0.915201229 _1_ AGT  --- 86 tcp 1040 [0 0 0 0] ------- [1:0 2:0 32 0] [51 0] 0 0
r 0.915201229 _1_ RTR  --- 86 tcp 1040 [0 0 0 0] ------- [1:0 2:0 32 0] [51 0] 0 0
s 0.915201229 _1_ RTR  --- 86 tcp 1040 [0 0 0 0] ------- [1:0 2:0 30 2] [51 0] 0 0
r 0.917246870 _1_ AGT  --- 82 ack 40 [13a 1 2 800] ------- [2:0 1:0 30 1] [32 0] 1 0
s 0.917246870 _1_ AGT  --- 87 tcp 1040 [0 0 0 0] ------- [1:0 2:0 32 0] [52 0] 0 0
r 0.917246870 _1_ RTR  --- 87 tcp 1040 [0 0 0 0] ------- [1:0 2:0 32 0] [52 0] 0 0
s 0.917246870 _1_ RTR  --- 87 tcp 1040 [0 0 0 0] ------- [1:0 2:0 30 2] [52 0] 0 0
r 0.919252513 _1_ AGT  --- 84 ack 40 [13a 1 2 800] ------- [2:0 1:0 30 1] [33 0] 1 0
s 0.919252513 _1_ AGT  --- 88 tcp 1040 [0 0 0 0] ------- [1:0 2:0 32 0] [53 0] 0 0
r 0.919252513 _1_ RTR  --- 88 tcp 1040 [0 0 0 0] ------- [1:0 2:0 32 0] [53 0] 0 0
s 0.919252513 _1_ RTR  --- 88 tcp 1040 [0 0 0 0] ------- [1:0 2:0 30 2] [53 0] 0 0
r 0.929117745 _2_ AGT  --- 59 tcp 1040 [13a 2 1 800] ------- [1:0 2:0 30 2] [35 0] 1 0
s 0.929117745 _2_ AGT  --- 89 ack 40 [0 0 0 0] ------- [2:0 1:0 32 0] [35 0] 0 0
r 0.929117745 _2_ RTR  --- 89 ack 40 [0 0 0 0] ------- [2:0 1:0 32 0] [35 0] 0 0
s 0.929117745 _2_ RTR  --- 89 ack 40 [0 0 0 0] ------- [2:0 1:0 30 1] [35 0] 0 0