n -t * -s 0  -x 441.49943135748595 -y 280.94282526566775 -Z 0 -z 30  -v circle -c black
n -t * -s 1  -x 306.0642400784717 -y 21.682998874077107 -Z 0 -z 30  -v circle -c black
n -t * -s 2  -x 426.16207661394128 -y 6.0216505108501996 -Z 0 -z 30  -v circle -c black
n -t * -s 3  -x 205.88013585930699 -y 227.44338737216006 -Z 0 -z 30  -v circle -c black
V -t * -v 1.0a5 -a 0
W -t * -x 500 -y 500
A -t * -n 1 -p 0 -o 0x7fffffff -c 30 -a 1
A -t * -h 1 -m 1073741823 -s 0
n -t 0.500000 -s 0 -x 441.499431 -y 280.942825 -U -49.359792 -V -7.975645 -T 3.879664
n -t 0.500000 -s 2 -x 426.162077 -y 6.021651 -U -14.899285 -V 47.728517 -T 5.111794
+ -t 0.500000000 -s 1 -d -1 -p tcp -e 40 -c 2 -a 0 -i 0 -k AGT 
- -t 0.500000000 -s 1 -d -1 -p tcp -e 40 -c 2 -a 0 -i 0 -k AGT
h -t 0.500000000 -s 1 -d -1 -p tcp -e 40 -c 2 -a 0 -i 0 -k AGT
+ -t 0.500000000 -s 1 -d -1 -p AODV -e 48 -c 2 -a 0 -i 0 -k RTR 
- -t 0.500000000 -s 1 -d -1 -p AODV -e 48 -c 2 -a 0 -i 0 -k RTR
h -t 0.500000000 -s 1 -d -1 -p AODV -e 48 -c 2 -a 0 -i 0 -k RTR
r -t 0.500988404 -s 2 -d -1 -p AODV -e 48 -c 2 -a 0 -i 0 -k RTR
+ -t 0.500988404 -s 2 -d 1 -p AODV -e 44 -c 2 -a 0 -i 0 -k RTR 
- -t 0.500988404 -s 2 -d 1 -p AODV -e 44 -c 2 -a 0 -i 0 -k RTR
h -t 0.500988404 -s 2 -d 1 -p AODV -e 44 -c 2 -a 0 -i 0 -k RTR
r -t 0.500988763 -s 3 -d -1 -p AODV -e 48 -c 2 -a 0 -i 0 -k RTR
r -t 0.500988975 -s 0 -d -1 -p AODV -e 48 -c 2 -a 0 -i 0 -k RTR
+ -t 0.501869990 -s 3 -d -1 -p AODV -e 48 -c 2 -a 0 -i 0 -k RTR 
- -t 0.501869990 -s 3 -d -1 -p AODV -e 48 -c 2 -a 0 -i 0 -k RTR
h -t 0.501869990 -s 3 -d -1 -p AODV -e 48 -c 2 -a 0 -i 0 -k RTR
r -t 0.503018752 -s 1 -d -1 -p AODV -e 48 -c 2 -a 0 -i 0 -k RTR
r -t 0.503018795 -s 0 -d -1 -p AODV -e 48 -c 2 -a 0 -i 0 -k RTR
r -t 0.503019030 -s 2 -d -1 -p AODV -e 48 -c 2 -a 0 -i 0 -k RTR
+ -t 0.505400709 -s 0 -d -1 -p AODV -e 48 -c 2 -a 0 -i 0 -k RTR 
- -t 0.505400709 -s 0 -d -1 -p AODV -e 48 -c 2 -a 0 -i 0 -k RTR
h -t 0.505400709 -s 0 -d -1 -p AODV -e 48 -c 2 -a 0 -i 0 -k RTR
+ -t 0.506831173 -s 1 -d 2 -p tcp -e 40 -c 2 -a 0 -i 0 -k RTR 
- -t 0.506831173 -s 1 -d 2 -p tcp -e 40 -c 2 -a 0 -i 0 -k RTR
h -t 0.506831173 -s 1 -d 2 -p tcp -e 40 -c 2 -a 0 -i 0 -k RTR
r -t 0.508696382 -s 2 -d 2 -p tcp -e 40 -c 2 -a 0 -i 0 -k AGT
+ -t 0.508696382 -s 2 -d -1 -p ack -e 40 -c 2 -a 0 -i 1 -k AGT 
- -t 0.508696382 -s 2 -d -1 -p ack -e 40 -c 2 -a 0 -i 1 -k AGT
h -t 0.508696382 -s 2 -d -1 -p ack -e 40 -c 2 -a 0 -i 1 -k AGT
+ -t 0.508696382 -s 2 -d 1 -p ack -e 40 -c 2 -a 0 -i 1 -k RTR 
- -t 0.508696382 -s 2 -d 1 -p ack -e 40 -c 2 -a 0 -i 1 -k RTR
h -t 0.508696382 -s 2 -d 1 -p ack -e 40 -c 2 -a 0 -i 1 -k RTR
r -t 0.510130102 -s 3 -d -1 -p AODV -e 48 -c 2 -a 0 -i 0 -k RTR
r -t 0.510130215 -s 2 -d -1 -p AODV -e 48 -c 2 -a 0 -i 0 -k RTR
r -t 0.510130273 -s 1 -d -1 -p AODV -e 48 -c 2 -a 0 -i 0 -k RTR
r -t 0.511941423 -s 1 -d 1 -p ack -e 40 -c 2 -a 0 -i 1 -k AGT
+ -t 0.511941423 -s 1 -d -1 -p tcp -e 1040 -c 2 -a 0 -i 2 -k AGT 
- -t 0.511941423 -s 1 -d -1 -p tcp -e 1040 -c 2 -a 0 -i 2 -k AGT
h -t 0.511941423 -s 1 -d -1 -p tcp -e 1040 -c 2 -a 0 -i 2 -k AGT
+ -t 0.511941423 -s 1 -d -1 -p tcp -e 1040 -c 2 -a 0 -i 3 -k AGT 
- -t 0.511941423 -s 1 -d -1 -p tcp -e 1040 -c 2 -a 0 -i 3 -k AGT
h -t 0.511941423 -s 1 -d -1 -p tcp -e 1040 -c 2 -a 0 -i 3 -k AGT
+ -t 0.511941423 -s 1 -d 2 -p tcp -e 1040 -c 2 -a 0 -i 2 -k RTR 
- -t 0.511941423 -s 1 -d 2 -p tcp -e 1040 -c 2 -a 0 -i 2 -k RTR
h -t 0.511941423 -s 1 -d 2 -p tcp -e 1040 -c 2 -a 0 -i 2 -k RTR
+ -t 0.511941423 -s 1 -d 2 -p tcp -e 1040 -c 2 -a 0 -i 3 -k RTR 
- -t 0.511941423 -s 1 -d 2 -p tcp -e 1040 -c 2 -a 0 -i 3 -k RTR
h -t 0.511941423 -s 1 -d 2 -p tcp -e 1040 -c 2 -a 0 -i 3 -k RTR
r -t 0.522006632 -s 2 -d 2 -p tcp -e 1040 -c 2 -a 0 -i 2 -k AGT
+ -t 0.522006632 -s 2 -d -1 -p ack -e 40 -c 2 -a 0 -i 4 -k AGT 
- -t 0.522006632 -s 2 -d -1 -p ack -e 40 -c 2 -a 0 -i 4 -k AGT
h -t 0.522006632 -s 2 -d -1 -p ack -e 40 -c 2 -a 0 -i 4 -k AGT
+ -t 0.522006632 -s 2 -d 1 -p ack -e 40 -c 2 -a 0 -i 4 -k RTR 
- -t 0.522006632 -s 2 -d 1 -p ack -e 40 -c 2 -a 0 -i 4 -k RTR
h -t 0.522006632 -s 2 -d 1 -p ack -e 40 -c 2 -a 0 -i 4 -k RTR
r -t 0.532172240 -s 2 -d 2 -p tcp -e 1040 -c 2 -a 0 -i 3 -k AGT
+ -t 0.532172240 -s 2 -d -1 -p ack -e 40 -c 2 -a 0 -i 5 -k AGT 
- -t 0.532172240 -s 2 -d -1 -p ack -e 40 -c 2 -a 0 -i 5 -k AGT
h -t 0.532172240 -s 2 -d -1 -p ack -e 40 -c 2 -a 0 -i 5 -k AGT
+ -t 0.532172240 -s 2 -d 1 -p ack -e 40 -c 2 -a 0 -i 5 -k RTR 
- -t 0.532172240 -s 2 -d 1 -p ack -e 40 -c 2 -a 0 -i 5 -k RTR
h -t 0.532172240 -s 2 -d 1 -p ack -e 40 -c 2 -a 0 -i 5 -k RTR
r -t 0.534137445 -s 1 -d 1 -p ack -e 40 -c 2 -a 0 -i 4 -k AGT
+ -t 0.534137445 -s 1 -d -1 -p tcp -e 1040 -c 2 -a 0 -i 6 -k AGT 
- -t 0.534137445 -s 1 -d -1 -p tcp -e 1040 -c 2 -a 0 -i 6 -k AGT
h -t 0.534137445 -s 1 -d -1 -p tcp -e 1040 -c 2 -a 0 -i 6 -k AGT
+ -t 0.534137445 -s 1 -d -1 -p tcp -e 1040 -c 2 -a 0 -i 7 -k AGT 
- -t 0.534137445 -s 1 -d -1 -p tcp -e 1040 -c 2 -a 0 -i 7 -k AGT
h -t 0.534137445 -s 1 -d -1 -p tcp -e 1040 -c 2 -a 0 -i 7 -k AGT
+ -t 0.534137445 -s 1 -d 2 -p tcp -e 1040 -c 2 -a 0 -i 6 -k RTR 
- -t 0.534137445 -s 1 -d 2 -p tcp -e 1040 -c 2 -a 0 -i 6 -k RTR
h -t 0.534137445 -s 1 -d 2 -p tcp -e 1040 -c 2 -a 0 -i 6 -k RTR
+ -t 0.534137445 -s 1 -d 2 -p tcp -e 1040 -c 2 -a 0 -i 7 -k RTR 
- -t 0.534137445 -s 1 -d 2 -p tcp -e 1040 -c 2 -a 0 -i 7 -k RTR
h -t 0.534137445 -s 1 -d 2 -p tcp -e 1040 -c 2 -a 0 -i 7 -k RTR
r -t 0.544162649 -s 2 -d 2 -p tcp -e 1040 -c 2 -a 0 -i 6 -k AGT
+ -t 0.544162649 -s 2 -d -1 -p ack -e 40 -c 2 -a 0 -i 8 -k AGT 
- -t 0.544162649 -s 2 -d -1 -p ack -e 40 -c 2 -a 0 -i 8 -k AGT
h -t 0.544162649 -s 2 -d -1 -p ack -e 40 -c 2 -a 0 -i 8 -k AGT
+ -t 0.544162649 -s 2 -d 1 -p ack -e 40 -c 2 -a 0 -i 8 -k RTR 
- -t 0.544162649 -s 2 -d 1 -p ack -e 40 -c 2 -a 0 -i 8 -k RTR
h -t 0.544162649 -s 2 -d 1 -p ack -e 40 -c 2 -a 0 -i 8 -k RTR
r -t 0.546007851 -s 1 -d 1 -p ack -e 40 -c 2 -a 0 -i 5 -k AGT
+ -t 0.546007851 -s 1 -d -1 -p tcp -e 1040 -c 2 -a 0 -i 9 -k AGT 
- -t 0.546007851 -s 1 -d -1 -p tcp -e 1040 -c 2 -a 0 -i 9 -k AGT
h -t 0.546007851 -s 1 -d -1 -p tcp -e 1040 -c 2 -a 0 -i 9 -k AGT
+ -t 0.546007851 -s 1 -d -1 -p tcp -e 1040 -c 2 -a 0 -i 10 -k AGT 
- -t 0.546007851 -s 1 -d -1 -p tcp -e 1040 -c 2 -a 0 -i 10 -k AGT
h -t 0.546007851 -s 1 -d -1 -p tcp -e 1040 -c 2 -a 0 -i 10 -k AGT
+ -t 0.546007851 -s 1 -d 2 -p tcp -e 1040 -c 2 -a 0 -i 9 -k RTR 
- -t 0.546007851 -s 1 -d 2 -p tcp -e 1040 -c 2 -a 0 -i 9 -k RTR
h -t 0.546007851 -s 1 -d 2 -p tcp -e 1040 -c 2 -a 0 -i 9 -k RTR
+ -t 0.546007851 -s 1 -d 2 -p tcp -e 1040 -c 2 -a 0 -i 10 -k RTR 
- -t 0.546007851 -s 1 -d 2 -p tcp -e 1040 -c 2 -a 0 -i 10 -k RTR
h -t 0.546007851 -s 1 -d 2 -p tcp -e 1040 -c 2 -a 0 -i 10 -k RTR
r -t 0.547853453 -s 1 -d 1 -p ack -e 40 -c 2 -a 0 -i 8 -k AGT
+ -t 0.547853453 -s 1 -d -1 -p tcp -e 1040 -c 2 -a 0 -i 11 -k AGT 
- -t 0.547853453 -s 1 -d -1 -p tcp -e 1040 -c 2 -a 0 -i 11 -k AGT
h -t 0.547853453 -s 1 -d -1 -p tcp -e 1040 -c 2 -a 0 -i 11 -k AGT
+ -t 0.547853453 -s 1 -d -1 -p tcp -e 1040 -c 2 -a 0 -i 12 -k AGT 
- -t 0.547853453 -s 1 -d -1 -p tcp -e 1040 -c 2 -a 0 -i 12 -k AGT
h -t 0.547853453 -s 1 -d -1 -p tcp -e 1040 -c 2 -a 0 -i 12 -k AGT
+ -t 0.547853453 -s 1 -d 2 -p tcp -e 1040 -c 2 -a 0 -i 11 -k RTR 
- -t 0.547853453 -s 1 -d 2 -p tcp -e 1040 -c 2 -a 0 -i 11 -k RTR
h -t 0.547853453 -s 1 -d 2 -p tcp -e 1040 -c 2 -a 0 -i 11 -k RTR
+ -t 0.547853453 -s 1 -d 2 -p tcp -e 1040 -c 2 -a 0 -i 12 -k RTR 
- -t 0.547853453 -s 1 -d 2 -p tcp -e 1040 -c 2 -a 0 -i 12 -k RTR
h -t 0.547853453 -s 1 -d 2 -p tcp -e 1040 -c 2 -a 0 -i 12 -k RTR
r -t 0.557878654 -s 2 -d 2 -p tcp -e 1040 -c 2 -a 0 -i 7 -k AGT
+ -t 0.557878654 -s 2 -d -1 -p ack -e 40 -c 2 -a 0 -i 13 -k AGT 
- -t 0.557878654 -s 2 -d -1 -p ack -e 40 -c 2 -a 0 -i 13 -k AGT
h -t 0.557878654 -s 2 -d -1 -p ack -e 40 -c 2 -a 0 -i 13 -k AGT
+ -t 0.557878654 -s 2 -d 1 -p ack -e 40 -c 2 -a 0 -i 13 -k RTR 
- -t 0.557878654 -s 2 -d 1 -p ack -e 40 -c 2 -a 0 -i 13 -k RTR
h -t 0.557878654 -s 2 -d 1 -p ack -e 40 -c 2 -a 0 -i 13 -k RTR
r -t 0.559763853 -s 1 -d 1 -p ack -e 40 -c 2 -a 0 -i 13 -k AGT
+ -t 0.559763853 -s 1 -d -1 -p tcp -e 1040 -c 2 -a 0 -i 14 -k AGT 
- -t 0.559763853 -s 1 -d -1 -p tcp -e 1040 -c 2 -a 0 -i 14 -k AGT
h -t 0.559763853 -s 1 -d -1 -p tcp -e 1040 -c 2 -a 0 -i 14 -k AGT
+ -t 0.559763853 -s 1 -d -1 -p tcp -e 1040 -c 2 -a 0 -i 15 -k AGT 
- -t 0.559763853 -s 1 -d -1 -p tcp -e 1040 -c 2 -a 0 -i 15 -k AGT
h -t 0.559763853 -s 1 -d -1 -p tcp -e 1040 -c 2 -a 0 -i 15 -k AGT
+ -t 0.559763853 -s 1 -d 2 -p tcp -e 1040 -c 2 -a 0 -i 14 -k RTR 
- -t 0.559763853 -s 1 -d 2 -p tcp -e 1040 -c 2 -a 0 -i 14 -k RTR
h -t 0.559763853 -s 1 -d 2 -p tcp -e 1040 -c 2 -a 0 -i 14 -k RTR
+ -t 0.559763853 -s 1 -d 2 -p tcp -e 1040 -c 2 -a 0 -i 15 -k RTR 
- -t 0.559763853 -s 1 -d 2 -p tcp -e 1040 -c 2 -a 0 -i 15 -k RTR
h -t 0.559763853 -s 1 -d 2 -p tcp -e 1040 -c 2 -a 0 -i 15 -k RTR
r -t 0.569989052 -s 2 -d 2 -p tcp -e 1040 -c 2 -a 0 -i 9 -k AGT
+ -t 0.569989052 -s 2 -d -1 -p ack -e 40 -c 2 -a 0 -i 16 -k AGT 
- -t 0.569989052 -s 2 -d -1 -p ack -e 40 -c 2 -a 0 -i 16 -k AGT
h -t 0.569989052 -s 2 -d -1 -p ack -e 40 -c 2 -a 0 -i 16 -k AGT
+ -t 0.569989052 -s 2 -d 1 -p ack -e 40 -c 2 -a 0 -i 16 -k RTR 
- -t 0.569989052 -s 2 -d 1 -p ack -e 40 -c 2 -a 0 -i 16 -k RTR
h -t 0.569989052 -s 2 -d 1 -p ack -e 40 -c 2 -a 0 -i 16 -k RTR
r -t 0.580214647 -s 2 -d 2 -p tcp -e 1040 -c 2 -a 0 -i 10 -k AGT
+ -t 0.580214647 -s 2 -d -1 -p ack -e 40 -c 2 -a 0 -i 17 -k AGT 
- -t 0.580214647 -s 2 -d -1 -p ack -e 40 -c 2 -a 0 -i 17 -k AGT
h -t 0.580214647 -s 2 -d -1 -p ack -e 40 -c 2 -a 0 -i 17 -k AGT
+ -t 0.580214647 -s 2 -d 1 -p ack -e 40 -c 2 -a 0 -i 17 -k RTR 
- -t 0.580214647 -s 2 -d 1 -p ack -e 40 -c 2 -a 0 -i 17 -k RTR
h -t 0.580214647 -s 2 -d 1 -p ack -e 40 -c 2 -a 0 -i 17 -k RTR
r -t 0.582219842 -s 1 -d 1 -p ack -e 40 -c 2 -a 0 -i 16 -k AGT
+ -t 0.582219842 -s 1 -d -1 -p tcp -e 1040 -c 2 -a 0 -i 18 -k AGT 
- -t 0.582219842 -s 1 -d -1 -p tcp -e 1040 -c 2 -a 0 -i 18 -k AGT
h -t 0.582219842 -s 1 -d -1 -p tcp -e 1040 -c 2 -a 0 -i 18 -k AGT
+ -t 0.582219842 -s 1 -d -1 -p tcp -e 1040 -c 2 -a 0 -i 19 -k AGT 
- -t 0.582219842 -s 1 -d -1 -p tcp -e 1040 -c 2 -a 0 -i 19 -k AGT
h -t 0.582219842 -s 1 -d -1 -p tcp -e 1040 -c 2 -a 0 -i 19 -k AGT
+ -t 0.582219842 -s 1 -d 2 -p tcp -e 1040 -c 2 -a 0 -i 18 -k RTR 
- -t 0.582219842 -s 1 -d 2 -p tcp -e 1040 -c 2 -a 0 -i 18 -k RTR
h -t 0.582219842 -s 1 -d 2 -p tcp -e 1040 -c 2 -a 0 -i 18 -k RTR
+ -t 0.582219842 -s 1 -d 2 -p tcp -e 1040 -c 2 -a 0 -i 19 -k RTR 
- -t 0.582219842 -s 1 -d 2 -p tcp -e 1040 -c 2 -a 0 -i 19 -k RTR
h -t 0.582219842 -s 1 -d 2 -p tcp -e 1040 -c 2 -a 0 -i 19 -k RTR
r -t 0.584405435 -s 1 -d 1 -p ack -e 40 -c 2 -a 0 -i 17 -k AGT
+ -t 0.584405435 -s 1 -d -1 -p tcp -e 1040 -c 2 -a 0 -i 20 -k AGT 
- -t 0.584405435 -s 1 -d -1 -p tcp -e 1040 -c 2 -a 0 -i 20 -k AGT
h -t 0.584405435 -s 1 -d -1 -p tcp -e 1040 -c 2 -a 0 -i 20 -k AGT
+ -t 0.584405435 -s 1 -d -1 -p tcp -e 1040 -c 2 -a 0 -i 21 -k AGT 
- -t 0.584405435 -s 1 -d -1 -p tcp -e 1040 -c 2 -a 0 -i 21 -k AGT
h -t 0.584405435 -s 1 -d -1 -p tcp -e 1040 -c 2 -a 0 -i 21 -k AGT
+ -t 0.584405435 -s 1 -d 2 -p tcp -e 1040 -c 2 -a 0 -i 20 -k RTR 
- -t 0.584405435 -s 1 -d 2 -p tcp -e 1040 -c 2 -a 0 -i 20 -k RTR
h -t 0.584405435 -s 1 -d 2 -p tcp -e 1040 -c 2 -a 0 -i 20 -k RTR
+ -t 0.584405435 -s 1 -d 2 -p tcp -e 1040 -c 2 -a 0 -i 21 -k RTR 
- -t 0.584405435 -s 1 -d 2 -p tcp -e 1040 -c 2 -a 0 -i 21 -k RTR
h -t 0.584405435 -s 1 -d 2 -p tcp -e 1040 -c 2 -a 0 -i 21 -k RTR
r -t 0.594250629 -s 2 -d 2 -p tcp -e 1040 -c 2 -a 0 -i 11 -k AGT
+ -t 0.594250629 -s 2 -d -1 -p ack -e 40 -c 2 -a 0 -i 22 -k AGT 
- -t 0.594250629 -s 2 -d -1 -p ack -e 40 -c 2 -a 0 -i 22 -k AGT
h -t 0.594250629 -s 2 -d -1 -p ack -e 40 -c 2 -a 0 -i 22 -k AGT
+ -t 0.594250629 -s 2 -d 1 -p ack -e 40 -c 2 -a 0 -i 22 -k RTR 
- -t 0.594250629 -s 2 -d 1 -p ack -e 40 -c 2 -a 0 -i 22 -k RTR
h -t 0.594250629 -s 2 -d 1 -p ack -e 40 -c 2 -a 0 -i 22 -k RTR
r -t 0.596115821 -s 1 -d 1 -p ack -e 40 -c 2 -a 0 -i 22 -k AGT
+ -t 0.596115821 -s 1 -d -1 -p tcp -e 1040 -c 2 -a 0 -i 23 -k AGT 
- -t 0.596115821 -s 1 -d -1 -p tcp -e 1040 -c 2 -a 0 -i 23 -k AGT
h -t 0.596115821 -s 1 -d -1 -p tcp -e 1040 -c 2 -a 0 -i 23 -k AGT
+ -t 0.596115821 -s 1 -d -1 -p tcp -e 1040 -c 2 -a 0 -i 24 -k AGT 
- -t 0.596115821 -s 1 -d -1 -p tcp -e 1040 -c 2 -a 0 -i 24 -k AGT
h -t 0.596115821 -s 1 -d -1 -p tcp -e 1040 -c 2 -a 0 -i 24 -k AGT
+ -t 0.596115821 -s 1 -d 2 -p tcp -e 1040 -c 2 -a 0 -i 23 -k RTR 
- -t 0.596115821 -s 1 -d 2 -p tcp -e 1040 -c 2 -a 0 -i 23 -k RTR
h -t 0.596115821 -s 1 -d 2 -p tcp -e 1040 -c 2 -a 0 -i 23 -k RTR
+ -t 0.596115821 -s 1 -d 2 -p tcp -e 1040 -c 2 -a 0 -i 24 -k RTR 
- -t 0.596115821 -s 1 -d 2 -p tcp -e 1040 -c 2 -a 0 -i 24 -k RTR
h -t 0.596115821 -s 1 -d 2 -p tcp -e 1040 -c 2 -a 0 -i 24 -k RTR
r -t 0.606221012 -s 2 -d 2 -p tcp -e 1040 -c 2 -a 0 -i 12 -k AGT
+ -t 0.606221012 -s 2 -d -1 -p ack -e 40 -c 2 -a 0 -i 25 -k AGT 
- -t 0.606221012 -s 2 -d -1 -p ack -e 40 -c 2 -a 0 -i 25 -k AGT
h -t 0.606221012 -s 2 -d -1 -p ack -e 40 -c 2 -a 0 -i 25 -k AGT
+ -t 0.606221012 -s 2 -d 1 -p ack -e 40 -c 2 -a 0 -i 25 -k RTR 
- -t 0.606221012 -s 2 -d 1 -p ack -e 40 -c 2 -a 0 -i 25 -k RTR
h -t 0.606221012 -s 2 -d 1 -p ack -e 40 -c 2 -a 0 -i 25 -k RTR
r -t 0.608146202 -s 1 -d 1 -p ack -e 40 -c 2 -a 0 -i 25 -k AGT
+ -t 0.608146202 -s 1 -d -1 -p tcp -e 1040 -c 2 -a 0 -i 26 -k AGT 
- -t 0.608146202 -s 1 -d -1 -p tcp -e 1040 -c 2 -a 0 -i 26 -k AGT
h -t 0.608146202 -s 1 -d -1 -p tcp -e 1040 -c 2 -a 0 -i 26 -k AGT
+ -t 0.608146202 -s 1 -d -1 -p tcp -e 1040 -c 2 -a 0 -i 27 -k AGT 
- -t 0.608146202 -s 1 -d -1 -p tcp -e 1040 -c 2 -a 0 -i 27 -k AGT
h -t 0.608146202 -s 1 -d -1 -p tcp -e 1040 -c 2 -a 0 -i 27 -k AGT
+ -t 0.608146202 -s 1 -d 2 -p tcp -e 1040 -c 2 -a 0 -i 26 -k RTR 
- -t 0.608146202 -s 1 -d 2 -p tcp -e 1040 -c 2 -a 0 -i 26 -k RTR
h -t 0.608146202 -s 1 -d 2 -p tcp -e 1040 -c 2 -a 0 -i 26 -k RTR
+ -t 0.608146202 -s 1 -d 2 -p tcp -e 1040 -c 2 -a 0 -i 27 -k RTR 
- -t 0.608146202 -s 1 -d 2 -p tcp -e 1040 -c 2 -a 0 -i 27 -k RTR
h -t 0.608146202 -s 1 -d 2 -p tcp -e 1040 -c 2 -a 0 -i 27 -k RTR
r -t 0.618031391 -s 2 -d 2 -p tcp -e 1040 -c 2 -a 0 -i 14 -k AGT
+ -t 0.618031391 -s 2 -d -1 -p ack -e 40 -c 2 -a 0 -i 28 -k AGT 
- -t 0.618031391 -s 2 -d -1 -p ack -e 40 -c 2 -a 0 -i 28 -k AGT
h -t 0.618031391 -s 2 -d -1 -p ack -e 40 -c 2 -a 0 -i 28 -k AGT
+ -t 0.618031391 -s 2 -d 1 -p ack -e 40 -c 2 -a 0 -i 28 -k RTR 
- -t 0.618031391 -s 2 -d 1 -p ack -e 40 -c 2 -a 0 -i 28 -k RTR
h -t 0.618031391 -s 2 -d 1 -p ack -e 40 -c 2 -a 0 -i 28 -k RTR
r -t 0.619896579 -s 1 -d 1 -p ack -e 40 -c 2 -a 0 -i 28 -k AGT
+ -t 0.619896579 -s 1 -d -1 -p tcp -e 1040 -c 2 -a 0 -i 29 -k AGT 
- -t 0.619896579 -s 1 -d -1 -p tcp -e 1040 -c 2 -a 0 -i 29 -k AGT
h -t 0.619896579 -s 1 -d -1 -p tcp -e 1040 -c 2 -a 0 -i 29 -k AGT
+ -t 0.619896579 -s 1 -d -1 -p tcp -e 1040 -c 2 -a 0 -i 30 -k AGT 
- -t 0.619896579 -s 1 -d -1 -p tcp -e 1040 -c 2 -a 0 -i 30 -k AGT
h -t 0.619896579 -s 1 -d -1 -p tcp -e 1040 -c 2 -a 0 -i 30 -k AGT
+ -t 0.619896579 -s 1 -d 2 -p tcp -e 1040 -c 2 -a 0 -i 29 -k RTR 
- -t 0.619896579 -s 1 -d 2 -p tcp -e 1040 -c 2 -a 0 -i 29 -k RTR
h -t 0.619896579 -s 1 -d 2 -p tcp -e 1040 -c 2 -a 0 -i 29 -k RTR
+ -t 0.619896579 -s 1 -d 2 -p tcp -e 1040 -c 2 -a 0 -i 30 -k RTR 
- -t 0.619896579 -s 1 -d 2 -p tcp -e 1040 -c 2 -a 0 -i 30 -k RTR
h -t 0.619896579 -s 1 -d 2 -p tcp -e 1040 -c 2 -a 0 -i 30 -k RTR
r -t 0.629981766 -s 2 -d 2 -p tcp -e 1040 -c 2 -a 0 -i 15 -k AGT
+ -t 0.629981766 -s 2 -d -1 -p ack -e 40 -c 2 -a 0 -i 31 -k AGT 
- -t 0.629981766 -s 2 -d -1 -p ack -e 40 -c 2 -a 0 -i 31 -k AGT
h -t 0.629981766 -s 2 -d -1 -p ack -e 40 -c 2 -a 0 -i 31 -k AGT
+ -t 0.629981766 -s 2 -d 1 -p ack -e 40 -c 2 -a 0 -i 31 -k RTR 
- -t 0.629981766 -s 2 -d 1 -p ack -e 40 -c 2 -a 0 -i 31 -k RTR
h -t 0.629981766 -s 2 -d 1 -p ack -e 40 -c 2 -a 0 -i 31 -k RTR
r -t 0.631906951 -s 1 -d 1 -p ack -e 40 -c 2 -a 0 -i 31 -k AGT
+ -t 0.631906951 -s 1 -d -1 -p tcp -e 1040 -c 2 -a 0 -i 32 -k AGT 
- -t 0.631906951 -s 1 -d -1 -p tcp -e 1040 -c 2 -a 0 -i 32 -k AGT
h -t 0.631906951 -s 1 -d -1 -p tcp -e 1040 -c 2 -a 0 -i 32 -k AGT
+ -t 0.631906951 -s 1 -d -1 -p tcp -e 1040 -c 2 -a 0 -i 33 -k AGT 
- -t 0.631906951 -s 1 -d -1 -p tcp -e 1040 -c 2 -a 0 -i 33 -k AGT
h -t 0.631906951 -s 1 -d -1 -p tcp -e 1040 -c 2 -a 0 -i 33 -k AGT
+ -t 0.631906951 -s 1 -d 2 -p tcp -e 1040 -c 2 -a 0 -i 32 -k RTR 
- -t 0.631906951 -s 1 -d 2 -p tcp -e 1040 -c 2 -a 0 -i 32 -k RTR
h -t 0.631906951 -s 1 -d 2 -p tcp -e 1040 -c 2 -a 0 -i 32 -k RTR
+ -t 0.631906951 -s 1 -d 2 -p tcp -e 1040 -c 2 -a 0 -i 33 -k RTR 
- -t 0.631906951 -s 1 -d 2 -p tcp -e 1040 -c 2 -a 0 -i 33 -k RTR
h -t 0.631906951 -s 1 -d 2 -p tcp -e 1040 -c 2 -a 0 -i 33 -k RTR
r -t 0.642172136 -s 2 -d 2 -p tcp -e 1040 -c 2 -a 0 -i 18 -k AGT
+ -t 0.642172136 -s 2 -d -1 -p ack -e 40 -c 2 -a 0 -i 34 -k AGT 
- -t 0.642172136 -s 2 -d -1 -p ack -e 40 -c 2 -a 0 -i 34 -k AGT
h -t 0.642172136 -s 2 -d -1 -p ack -e 40 -c 2 -a 0 -i 34 -k AGT
+ -t 0.642172136 -s 2 -d 1 -p ack -e 40 -c 2 -a 0 -i 34 -k RTR 
- -t 0.642172136 -s 2 -d 1 -p ack -e 40 -c 2 -a 0 -i 34 -k RTR
h -t 0.642172136 -s 2 -d 1 -p ack -e 40 -c 2 -a 0 -i 34 -k RTR
r -t 0.644197319 -s 1 -d 1 -p ack -e 40 -c 2 -a 0 -i 34 -k AGT
+ -t 0.644197319 -s 1 -d -1 -p tcp -e 1040 -c 2 -a 0 -i 35 -k AGT 
- -t 0.644197319 -s 1 -d -1 -p tcp -e 1040 -c 2 -a 0 -i 35 -k AGT
h -t 0.644197319 -s 1 -d -1 -p tcp -e 1040 -c 2 -a 0 -i 35 -k AGT
+ -t 0.644197319 -s 1 -d -1 -p tcp -e 1040 -c 2 -a 0 -i 36 -k AGT 
- -t 0.644197319 -s 1 -d -1 -p tcp -e 1040 -c 2 -a 0 -i 36 -k AGT
h -t 0.644197319 -s 1 -d -1 -p tcp -e 1040 -c 2 -a 0 -i 36 -k AGT
+ -t 0.644197319 -s 1 -d 2 -p tcp -e 1040 -c 2 -a 0 -i 35 -k RTR 
- -t 0.644197319 -s 1 -d 2 -p tcp -e 1040 -c 2 -a 0 -i 35 -k RTR
h -t 0.644197319 -s 1 -d 2 -p tcp -e 1040 -c 2 -a 0 -i 35 -k RTR
+ -t 0.644197319 -s 1 -d 2 -p tcp -e 1040 -c 2 -a 0 -i 36 -k RTR 
- -t 0.644197319 -s 1 -d 2 -p tcp -e 1040 -c 2 -a 0 -i 36 -k RTR
h -t 0.644197319 -s 1 -d 2 -p tcp -e 1040 -c 2 -a 0 -i 36 -k RTR
r -t 0.654422502 -s 2 -d 2 -p tcp -e 1040 -c 2 -a 0 -i 19 -k AGT
+ -t 0.654422502 -s 2 -d -1 -p ack -e 40 -c 2 -a 0 -i 37 -k AGT 
- -t 0.654422502 -s 2 -d -1 -p ack -e 40 -c 2 -a 0 -i 37 -k AGT
h -t 0.654422502 -s 2 -d -1 -p ack -e 40 -c 2 -a 0 -i 37 -k AGT
+ -t 0.654422502 -s 2 -d 1 -p ack -e 40 -c 2 -a 0 -i 37 -k RTR 
- -t 0.654422502 -s 2 -d 1 -p ack -e 40 -c 2 -a 0 -i 37 -k RTR
h -t 0.654422502 -s 2 -d 1 -p ack -e 40 -c 2 -a 0 -i 37 -k RTR
r -t 0.656367682 -s 1 -d 1 -p ack -e 40 -c 2 -a 0 -i 37 -k AGT
+ -t 0.656367682 -s 1 -d -1 -p tcp -e 1040 -c 2 -a 0 -i 38 -k AGT 
- -t 0.656367682 -s 1 -d -1 -p tcp -e 1040 -c 2 -a 0 -i 38 -k AGT
h -t 0.656367682 -s 1 -d -1 -p tcp -e 1040 -c 2 -a 0 -i 38 -k AGT
+ -t 0.656367682 -s 1 -d -1 -p tcp -e 1040 -c 2 -a 0 -i 39 -k AGT 
- -t 0.656367682 -s 1 -d -1 -p tcp -e 1040 -c 2 -a 0 -i 39 -k AGT
h -t 0.656367682 -s 1 -d -1 -p tcp -e 1040 -c 2 -a 0 -i 39 -k AGT
+ -t 0.656367682 -s 1 -d 2 -p tcp -e 1040 -c 2 -a 0 -i 38 -k RTR 
- -t 0.656367682 -s 1 -d 2 -p tcp -e 1040 -c 2 -a 0 -i 38 -k RTR
h -t 0.656367682 -s 1 -d 2 -p tcp -e 1040 -c 2 -a 0 -i 38 -k RTR
+ -t 0.656367682 -s 1 -d 2 -p tcp -e 1040 -c 2 -a 0 -i 39 -k RTR 
- -t 0.656367682 -s 1 -d 2 -p tcp -e 1040 -c 2 -a 0 -i 39 -k RTR
h -t 0.656367682 -s 1 -d 2 -p tcp -e 1040 -c 2 -a 0 -i 39 -k RTR
r -t 0.666432863 -s 2 -d 2 -p tcp -e 1040 -c 2 -a 0 -i 20 -k AGT
+ -t 0.666432863 -s 2 -d -1 -p ack -e 40 -c 2 -a 0 -i 40 -k AGT 
- -t 0.666432863 -s 2 -d -1 -p ack -e 40 -c 2 -a 0 -i 40 -k AGT
h -t 0.666432863 -s 2 -d -1 -p ack -e 40 -c 2 -a 0 -i 40 -k AGT
+ -t 0.666432863 -s 2 -d 1 -p ack -e 40 -c 2 -a 0 -i 40 -k RTR 
- -t 0.666432863 -s 2 -d 1 -p ack -e 40 -c 2 -a 0 -i 40 -k RTR
h -t 0.666432863 -s 2 -d 1 -p ack -e 40 -c 2 -a 0 -i 40 -k RTR
r -t 0.668538041 -s 1 -d 1 -p ack -e 40 -c 2 -a 0 -i 40 -k AGT
+ -t 0.668538041 -s 1 -d -1 -p tcp -e 1040 -c 2 -a 0 -i 41 -k AGT 
- -t 0.668538041 -s 1 -d -1 -p tcp -e 1040 -c 2 -a 0 -i 41 -k AGT
h -t 0.668538041 -s 1 -d -1 -p tcp -e 1040 -c 2 -a 0 -i 41 -k AGT
+ -t 0.668538041 -s 1 -d -1 -p tcp -e 1040 -c 2 -a 0 -i 42 -k AGT 
- -t 0.668538041 -s 1 -d -1 -p tcp -e 1040 -c 2 -a 0 -i 42 -k AGT
h -t 0.668538041 -s 1 -d -1 -p tcp -e 1040 -c 2 -a 0 -i 42 -k AGT
+ -t 0.668538041 -s 1 -d 2 -p tcp -e 1040 -c 2 -a 0 -i 41 -k RTR 
- -t 0.668538041 -s 1 -d 2 -p tcp -e 1040 -c 2 -a 0 -i 41 -k RTR
h -t 0.668538041 -s 1 -d 2 -p tcp -e 1040 -c 2 -a 0 -i 41 -k RTR
+ -t 0.668538041 -s 1 -d 2 -p tcp -e 1040 -c 2 -a 0 -i 42 -k RTR 
- -t 0.668538041 -s 1 -d 2 -p tcp -e 1040 -c 2 -a 0 -i 42 -k RTR
h -t 0.668538041 -s 1 -d 2 -p tcp -e 1040 -c 2 -a 0 -i 42 -k RTR
r -t 0.678383219 -s 2 -d 2 -p tcp -e 1040 -c 2 -a 0 -i 21 -k AGT
+ -t 0.678383219 -s 2 -d -1 -p ack -e 40 -c 2 -a 0 -i 43 -k AGT 
- -t 0.678383219 -s 2 -d -1 -p ack -e 40 -c 2 -a 0 -i 43 -k AGT
h -t 0.678383219 -s 2 -d -1 -p ack -e 40 -c 2 -a 0 -i 43 -k AGT
+ -t 0.678383219 -s 2 -d 1 -p ack -e 40 -c 2 -a 0 -i 43 -k RTR 
- -t 0.678383219 -s 2 -d 1 -p ack -e 40 -c 2 -a 0 -i 43 -k RTR
h -t 0.678383219 -s 2 -d 1 -p ack -e 40 -c 2 -a 0 -i 43 -k RTR
r -t 0.680388396 -s 1 -d 1 -p ack -e 40 -c 2 -a 0 -i 43 -k AGT
+ -t 0.680388396 -s 1 -d -1 -p tcp -e 1040 -c 2 -a 0 -i 44 -k AGT 
- -t 0.680388396 -s 1 -d -1 -p tcp -e 1040 -c 2 -a 0 -i 44 -k AGT
h -t 0.680388396 -s 1 -d -1 -p tcp -e 1040 -c 2 -a 0 -i 44 -k AGT
+ -t 0.680388396 -s 1 -d -1 -p tcp -e 1040 -c 2 -a 0 -i 45 -k AGT 
- -t 0.680388396 -s 1 -d -1 -p tcp -e 1040 -c 2 -a 0 -i 45 -k AGT
h -t 0.680388396 -s 1 -d -1 -p tcp -e 1040 -c 2 -a 0 -i 45 -k AGT
+ -t 0.680388396 -s 1 -d 2 -p tcp -e 1040 -c 2 -a 0 -i 44 -k RTR 
- -t 0.680388396 -s 1 -d 2 -p tcp -e 1040 -c 2 -a 0 -i 44 -k RTR
h -t 0.680388396 -s 1 -d 2 -p tcp -e 1040 -c 2 -a 0 -i 44 -k RTR
+ -t 0.680388396 -s 1 -d 2 -p tcp -e 1040 -c 2 -a 0 -i 45 -k RTR 
- -t 0.680388396 -s 1 -d 2 -p tcp -e 1040 -c 2 -a 0 -i 45 -k RTR
h -t 0.680388396 -s 1 -d 2 -p tcp -e 1040 -c 2 -a 0 -i 45 -k RTR
r -t 0.690333572 -s 2 -d 2 -p tcp -e 1040 -c 2 -a 0 -i 23 -k AGT
+ -t 0.690333572 -s 2 -d -1 -p ack -e 40 -c 2 -a 0 -i 46 -k AGT 
- -t 0.690333572 -s 2 -d -1 -p ack -e 40 -c 2 -a 0 -i 46 -k AGT
h -t 0.690333572 -s 2 -d -1 -p ack -e 40 -c 2 -a 0 -i 46 -k AGT
+ -t 0.690333572 -s 2 -d 1 -p ack -e 40 -c 2 -a 0 -i 46 -k RTR 
- -t 0.690333572 -s 2 -d 1 -p ack -e 40 -c 2 -a 0 -i 46 -k RTR
h -t 0.690333572 -s 2 -d 1 -p ack -e 40 -c 2 -a 0 -i 46 -k RTR
n -t 0.700000 -s 1 -x 306.064240 -y 21.682999 -U -42.243752 -V 42.608279 -T 6.179949
n -t 0.700000 -s 3 -x 205.880136 -y 227.443387 -U -21.625808 -V 55.967173 -T 2.815161
r -t 0.700159138 -s 2 -d 2 -p tcp -e 1040 -c 2 -a 0 -i 24 -k AGT
+ -t 0.700159138 -s 2 -d -1 -p ack -e 40 -c 2 -a 0 -i 47 -k AGT 
- -t 0.700159138 -s 2 -d -1 -p ack -e 40 -c 2 -a 0 -i 47 -k AGT
h -t 0.700159138 -s 2 -d -1 -p ack -e 40 -c 2 -a 0 -i 47 -k AGT
+ -t 0.700159138 -s 2 -d 1 -p ack -e 40 -c 2 -a 0 -i 47 -k RTR 
- -t 0.700159138 -s 2 -d 1 -p ack -e 40 -c 2 -a 0 -i 47 -k RTR
h -t 0.700159138 -s 2 -d 1 -p ack -e 40 -c 2 -a 0 -i 47 -k RTR
r -t 0.710204702 -s 2 -d 2 -p tcp -e 1040 -c 2 -a 0 -i 26 -k AGT
+ -t 0.710204702 -s 2 -d -1 -p ack -e 40 -c 2 -a 0 -i 48 -k AGT 
- -t 0.710204702 -s 2 -d -1 -p ack -e 40 -c 2 -a 0 -i 48 -k AGT
h -t 0.710204702 -s 2 -d -1 -p ack -e 40 -c 2 -a 0 -i 48 -k AGT
+ -t 0.710204702 -s 2 -d 1 -p ack -e 40 -c 2 -a 0 -i 48 -k RTR 
- -t 0.710204702 -s 2 -d 1 -p ack -e 40 -c 2 -a 0 -i 48 -k RTR
h -t 0.710204702 -s 2 -d 1 -p ack -e 40 -c 2 -a 0 -i 48 -k RTR
r -t 0.712189877 -s 1 -d 1 -p ack -e 40 -c 2 -a 0 -i 46 -k AGT
+ -t 0.712189877 -s 1 -d -1 -p tcp -e 1040 -c 2 -a 0 -i 49 -k AGT 
- -t 0.712189877 -s 1 -d -1 -p tcp -e 1040 -c 2 -a 0 -i 49 -k AGT
h -t 0.712189877 -s 1 -d -1 -p tcp -e 1040 -c 2 -a 0 -i 49 -k AGT
+ -t 0.712189877 -s 1 -d -1 -p tcp -e 1040 -c 2 -a 0 -i 50 -k AGT 
- -t 0.712189877 -s 1 -d -1 -p tcp -e 1040 -c 2 -a 0 -i 50 -k AGT
h -t 0.712189877 -s 1 -d -1 -p tcp -e 1040 -c 2 -a 0 -i 50 -k AGT
+ -t 0.712189877 -s 1 -d 2 -p tcp -e 1040 -c 2 -a 0 -i 49 -k RTR 
- -t 0.712189877 -s 1 -d 2 -p tcp -e 1040 -c 2 -a 0 -i 49 -k RTR
h -t 0.712189877 -s 1 -d 2 -p tcp -e 1040 -c 2 -a 0 -i 49 -k RTR
+ -t 0.712189877 -s 1 -d 2 -p tcp -e 1040 -c 2 -a 0 -i 50 -k RTR 
- -t 0.712189877 -s 1 -d 2 -p tcp -e 1040 -c 2 -a 0 -i 50 -k RTR
h -t 0.712189877 -s 1 -d 2 -p tcp -e 1040 -c 2 -a 0 -i 50 -k RTR
r -t 0.723121838 -s 2 -d 2 -p tcp -e 1040 -c 2 -a 0 -i 27 -k AGT
+ -t 0.723121838 -s 2 -d -1 -p ack -e 40 -c 2 -a 0 -i 51 -k AGT 
- -t 0.723121838 -s 2 -d -1 -p ack -e 40 -c 2 -a 0 -i 51 -k AGT
h -t 0.723121838 -s 2 -d -1 -p ack -e 40 -c 2 -a 0 -i 51 -k AGT
+ -t 0.723121838 -s 2 -d 1 -p ack -e 40 -c 2 -a 0 -i 51 -k RTR 
- -t 0.723121838 -s 2 -d 1 -p ack -e 40 -c 2 -a 0 -i 51 -k RTR
h -t 0.723121838 -s 2 -d 1 -p ack -e 40 -c 2 -a 0 -i 51 -k RTR
r -t 0.733247410 -s 2 -d 2 -p tcp -e 1040 -c 2 -a 0 -i 29 -k AGT
+ -t 0.733247410 -s 2 -d -1 -p ack -e 40 -c 2 -a 0 -i 52 -k AGT 
- -t 0.733247410 -s 2 -d -1 -p ack -e 40 -c 2 -a 0 -i 52 -k AGT
h -t 0.733247410 -s 2 -d -1 -p ack -e 40 -c 2 -a 0 -i 52 -k AGT
+ -t 0.733247410 -s 2 -d 1 -p ack -e 40 -c 2 -a 0 -i 52 -k RTR 
- -t 0.733247410 -s 2 -d 1 -p ack -e 40 -c 2 -a 0 -i 52 -k RTR
h -t 0.733247410 -s 2 -d 1 -p ack -e 40 -c 2 -a 0 -i 52 -k RTR
r -t 0.743072986 -s 2 -d 2 -p tcp -e 1040 -c 2 -a 0 -i 30 -k AGT
+ -t 0.743072986 -s 2 -d -1 -p ack -e 40 -c 2 -a 0 -i 53 -k AGT 
- -t 0.743072986 -s 2 -d -1 -p ack -e 40 -c 2 -a 0 -i 53 -k AGT
h -t 0.743072986 -s 2 -d -1 -p ack -e 40 -c 2 -a 0 -i 53 -k AGT
+ -t 0.743072986 -s 2 -d 1 -p ack -e 40 -c 2 -a 0 -i 53 -k RTR 
- -t 0.743072986 -s 2 -d 1 -p ack -e 40 -c 2 -a 0 -i 53 -k RTR
h -t 0.743072986 -s 2 -d 1 -p ack -e 40 -c 2 -a 0 -i 53 -k RTR
r -t 0.753138566 -s 2 -d 2 -p tcp -e 1040 -c 2 -a 0 -i 32 -k AGT
+ -t 0.753138566 -s 2 -d -1 -p ack -e 40 -c 2 -a 0 -i 54 -k AGT 
- -t 0.753138566 -s 2 -d -1 -p ack -e 40 -c 2 -a 0 -i 54 -k AGT
h -t 0.753138566 -s 2 -d -1 -p ack -e 40 -c 2 -a 0 -i 54 -k AGT
+ -t 0.753138566 -s 2 -d 1 -p ack -e 40 -c 2 -a 0 -i 54 -k RTR 
- -t 0.753138566 -s 2 -d 1 -p ack -e 40 -c 2 -a 0 -i 54 -k RTR
h -t 0.753138566 -s 2 -d 1 -p ack -e 40 -c 2 -a 0 -i 54 -k RTR
r -t 0.755143753 -s 1 -d 1 -p ack -e 40 -c 2 -a 0 -i 47 -k AGT
+ -t 0.755143753 -s 1 -d -1 -p tcp -e 1040 -c 2 -a 0 -i 55 -k AGT 
- -t 0.755143753 -s 1 -d -1 -p tcp -e 1040 -c 2 -a 0 -i 55 -k AGT
h -t 0.755143753 -s 1 -d -1 -p tcp -e 1040 -c 2 -a 0 -i 55 -k AGT
+ -t 0.755143753 -s 1 -d -1 -p tcp -e 1040 -c 2 -a 0 -i 56 -k AGT 
- -t 0.755143753 -s 1 -d -1 -p tcp -e 1040 -c 2 -a 0 -i 56 -k AGT
h -t 0.755143753 -s 1 -d -1 -p tcp -e 1040 -c 2 -a 0 -i 56 -k AGT
+ -t 0.755143753 -s 1 -d 2 -p tcp -e 1040 -c 2 -a 0 -i 55 -k RTR 
- -t 0.755143753 -s 1 -d 2 -p tcp -e 1040 -c 2 -a 0 -i 55 -k RTR
h -t 0.755143753 -s 1 -d 2 -p tcp -e 1040 -c 2 -a 0 -i 55 -k RTR
+ -t 0.755143753 -s 1 -d 2 -p tcp -e 1040 -c 2 -a 0 -i 56 -k RTR 
- -t 0.755143753 -s 1 -d 2 -p tcp -e 1040 -c 2 -a 0 -i 56 -k RTR
h -t 0.755143753 -s 1 -d 2 -p tcp -e 1040 -c 2 -a 0 -i 56 -k RTR
r -t 0.765088941 -s 2 -d 2 -p tcp -e 1040 -c 2 -a 0 -i 33 -k AGT
+ -t 0.765088941 -s 2 -d -1 -p ack -e 40 -c 2 -a 0 -i 57 -k AGT 
- -t 0.765088941 -s 2 -d -1 -p ack -e 40 -c 2 -a 0 -i 57 -k AGT
h -t 0.765088941 -s 2 -d -1 -p ack -e 40 -c 2 -a 0 -i 57 -k AGT
+ -t 0.765088941 -s 2 -d 1 -p ack -e 40 -c 2 -a 0 -i 57 -k RTR 
- -t 0.765088941 -s 2 -d 1 -p ack -e 40 -c 2 -a 0 -i 57 -k RTR
h -t 0.765088941 -s 2 -d 1 -p ack -e 40 -c 2 -a 0 -i 57 -k RTR
r -t 0.774934528 -s 2 -d 2 -p tcp -e 1040 -c 2 -a 0 -i 35 -k AGT
+ -t 0.774934528 -s 2 -d -1 -p ack -e 40 -c 2 -a 0 -i 58 -k AGT 
- -t 0.774934528 -s 2 -d -1 -p ack -e 40 -c 2 -a 0 -i 58 -k AGT
h -t 0.774934528 -s 2 -d -1 -p ack -e 40 -c 2 -a 0 -i 58 -k AGT
+ -t 0.774934528 -s 2 -d 1 -p ack -e 40 -c 2 -a 0 -i 58 -k RTR 
- -t 0.774934528 -s 2 -d 1 -p ack -e 40 -c 2 -a 0 -i 58 -k RTR
h -t 0.774934528 -s 2 -d 1 -p ack -e 40 -c 2 -a 0 -i 58 -k RTR
r -t 0.776899722 -s 1 -d 1 -p ack -e 40 -c 2 -a 0 -i 48 -k AGT
+ -t 0.776899722 -s 1 -d -1 -p tcp -e 1040 -c 2 -a 0 -i 59 -k AGT 
- -t 0.776899722 -s 1 -d -1 -p tcp -e 1040 -c 2 -a 0 -i 59 -k AGT
h -t 0.776899722 -s 1 -d -1 -p tcp -e 1040 -c 2 -a 0 -i 59 -k AGT
+ -t 0.776899722 -s 1 -d -1 -p tcp -e 1040 -c 2 -a 0 -i 60 -k AGT 
- -t 0.776899722 -s 1 -d -1 -p tcp -e 1040 -c 2 -a 0 -i 60 -k AGT
h -t 0.776899722 -s 1 -d -1 -p tcp -e 1040 -c 2 -a 0 -i 60 -k AGT
+ -t 0.776899722 -s 1 -d 2 -p tcp -e 1040 -c 2 -a 0 -i 59 -k RTR 
- -t 0.776899722 -s 1 -d 2 -p tcp -e 1040 -c 2 -a 0 -i 59 -k RTR
h -t 0.776899722 -s 1 -d 2 -p tcp -e 1040 -c 2 -a 0 -i 59 -k RTR
+ -t 0.776899722 -s 1 -d 2 -p tcp -e 1040 -c 2 -a 0 -i 60 -k RTR 
- -t 0.776899722 -s 1 -d 2 -p tcp -e 1040 -c 2 -a 0 -i 60 -k RTR
h -t 0.776899722 -s 1 -d 2 -p tcp -e 1040 -c 2 -a 0 -i 60 -k RTR
r -t 0.778965313 -s 1 -d 1 -p ack -e 40 -c 2 -a 0 -i 51 -k AGT
+ -t 0.778965313 -s 1 -d -1 -p tcp -e 1040 -c 2 -a 0 -i 61 -k AGT 
- -t 0.778965313 -s 1 -d -1 -p tcp -e 1040 -c 2 -a 0 -i 61 -k AGT
h -t 0.778965313 -s 1 -d -1 -p tcp -e 1040 -c 2 -a 0 -i 61 -k AGT
+ -t 0.778965313 -s 1 -d -1 -p tcp -e 1040 -c 2 -a 0 -i 62 -k AGT 
- -t 0.778965313 -s 1 -d -1 -p tcp -e 1040 -c 2 -a 0 -i 62 -k AGT
h -t 0.778965313 -s 1 -d -1 -p tcp -e 1040 -c 2 -a 0 -i 62 -k AGT
+ -t 0.778965313 -s 1 -d 2 -p tcp -e 1040 -c 2 -a 0 -i 61 -k RTR 
- -t 0.778965313 -s 1 -d 2 -p tcp -e 1040 -c 2 -a 0 -i 61 -k RTR
h -t 0.778965313 -s 1 -d 2 -p tcp -e 1040 -c 2 -a 0 -i 61 -k RTR
+ -t 0.778965313 -s 1 -d 2 -p tcp -e 1040 -c 2 -a 0 -i 62 -k RTR 
- -t 0.778965313 -s 1 -d 2 -p tcp -e 1040 -c 2 -a 0 -i 62 -k RTR
h -t 0.778965313 -s 1 -d 2 -p tcp -e 1040 -c 2 -a 0 -i 62 -k RTR
r -t 0.788890508 -s 2 -d 2 -p tcp -e 1040 -c 2 -a 0 -i 36 -k AGT
+ -t 0.788890508 -s 2 -d -1 -p ack -e 40 -c 2 -a 0 -i 63 -k AGT 
- -t 0.788890508 -s 2 -d -1 -p ack -e 40 -c 2 -a 0 -i 63 -k AGT
h -t 0.788890508 -s 2 -d -1 -p ack -e 40 -c 2 -a 0 -i 63 -k AGT
+ -t 0.788890508 -s 2 -d 1 -p ack -e 40 -c 2 -a 0 -i 63 -k RTR 
- -t 0.788890508 -s 2 -d 1 -p ack -e 40 -c 2 -a 0 -i 63 -k RTR
h -t 0.788890508 -s 2 -d 1 -p ack -e 40 -c 2 -a 0 -i 63 -k RTR
r -t 0.790735705 -s 1 -d 1 -p ack -e 40 -c 2 -a 0 -i 52 -k AGT
+ -t 0.790735705 -s 1 -d -1 -p tcp -e 1040 -c 2 -a 0 -i 64 -k AGT 