+ 0.1 1 2 cbr 1000 ------- 1 1.0 3.1 0 0
- 0.1 1 2 cbr 1000 ------- 1 1.0 3.1 0 0
r 0.114 1 2 cbr 1000 ------- 1 1.0 3.1 0 0
+ 0.114 2 3 cbr 1000 ------- 1 1.0 3.1 0 0
- 0.114 2 3 cbr 1000 ------- 1 1.0 3.1 0 0
+ 0.117857 1 2 cbr 1000 ------- 1 1.0 3.1 1 1
- 0.117857 1 2 cbr 1000 ------- 1 1.0 3.1 1 1
r 0.131857 1 2 cbr 1000 ------- 1 1.0 3.1 1 1
+ 0.131857 2 3 cbr 1000 ------- 1 1.0 3.1 1 1
- 0.131857 2 3 cbr 1000 ------- 1 1.0 3.1 1 1
+ 0.135714 1 2 cbr 1000 ------- 1 1.0 3.1 2 2
- 0.135714 1 2 cbr 1000 ------- 1 1.0 3.1 2 2
r 0.138706 2 3 cbr 1000 ------- 1 1.0 3.1 0 0
r 0.149714 1 2 cbr 1000 ------- 1 1.0 3.1 2 2
+ 0.149714 2 3 cbr 1000 ------- 1 1.0 3.1 2 2
- 0.149714 2 3 cbr 1000 ------- 1 1.0 3.1 2 2
+ 0.153571 1 2 cbr 1000 ------- 1 1.0 3.1 3 3
- 0.153571 1 2 cbr 1000 ------- 1 1.0 3.1 3 3
r 0.156563 2 3 cbr 1000 ------- 1 1.0 3.1 1 1
r 0.167571 1 2 cbr 1000 ------- 1 1.0 3.1 3 3
+ 0.167571 2 3 cbr 1000 ------- 1 1.0 3.1 3 3
- 0.167571 2 3 cbr 1000 ------- 1 1.0 3.1 3 3
+ 0.171429 1 2 cbr 1000 ------- 1 1.0 3.1 4 4
- 0.171429 1 2 cbr 1000 ------- 1 1.0 3.1 4 4
r 0.17442 2 3 cbr 1000 ------- 1 1.0 3.1 2 2
r 0.185429 1 2 cbr 1000 ------- 1 1.0 3.1 4 4
+ 0.185429 2 3 cbr 1000 ------- 1 1.0 3.1 4 4
- 0.185429 2 3 cbr 1000 ------- 1 1.0 3.1 4 4
+ 0.189286 1 2 cbr 1000 ------- 1 1.0 3.1 5 5
- 0.189286 1 2 cbr 1000 ------- 1 1.0 3.1 5 5
r 0.192277 2 3 cbr 1000 ------- 1 1.0 3.1 3 3
r 0.203286 1 2 cbr 1000 ------- 1 1.0 3.1 5 5
+ 0.203286 2 3 cbr 1000 ------- 1 1.0 3.1 5 5
- 0.203286 2 3 cbr 1000 ------- 1 1.0 3.1 5 5
+ 0.207143 1 2 cbr 1000 ------- 1 1.0 3.1 6 6
- 0.207143 1 2 cbr 1000 ------- 1 1.0 3.1 6 6
r 0.210134 2 3 cbr 1000 ------- 1 1.0 3.1 4 4
r 0.221143 1 2 cbr 1000 ------- 1 1.0 3.1 6 6
+ 0.221143 2 3 cbr 1000 ------- 1 1.0 3.1 6 6
- 0.221143 2 3 cbr 1000 ------- 1 1.0 3.1 6 6
+ 0.225 1 2 cbr 1000 ------- 1 1.0 3.1 7 7
- 0.225 1 2 cbr 1000 ------- 1 1.0 3.1 7 7
r 0.227992 2 3 cbr 1000 ------- 1 1.0 3.1 5 5
r 0.239 1 2 cbr 1000 ------- 1 1.0 3.1 7 7
+ 0.239 2 3 cbr 1000 ------- 1 1.0 3.1 7 7
- 0.239 2 3 cbr 1000 ------- 1 1.0 3.1 7 7
+ 0.242857 1 2 cbr 1000 ------- 1 1.0 3.1 8 8
- 0.242857 1 2 cbr 1000 ------- 1 1.0 3.1 8 8
r 0.245849 2 3 cbr 1000 ------- 1 1.0 3.1 6 6
r 0.256857 1 2 cbr 1000 ------- 1 1.0 3.1 8 8
+ 0.256857 2 3 cbr 1000 ------- 1 1.0 3.1 8 8
- 0.256857 2 3 cbr 1000 ------- 1 1.0 3.1 8 8
+ 0.260714 1 2 cbr 1000 ------- 1 1.0 3.1 9 9
- 0.260714 1 2 cbr 1000 ------- 1 1.0 3.1 9 9
r 0.263706 2 3 cbr 1000 ------- 1 1.0 3.1 7 7
r 0.274714 1 2 cbr 1000 ------- 1 1.0 3.1 9 9
+ 0.274714 2 3 cbr 1000 ------- 1 1.0 3.1 9 9
- 0.274714 2 3 cbr 1000 ------- 1 1.0 3.1 9 9
+ 0.278571 1 2 cbr 1000 ------- 1 1.0 3.1 10 10
- 0.278571 1 2 cbr 1000 ------- 1 1.0 3.1 10 10
r 0.281563 2 3 cbr 1000 ------- 1 1.0 3.1 8 8
r 0.292571 1 2 cbr 1000 ------- 1 1.0 3.1 10 10
+ 0.292571 2 3 cbr 1000 ------- 1 1.0 3.1 10 10
- 0.292571 2 3 cbr 1000 ------- 1 1.0 3.1 10 10
+ 0.296429 1 2 cbr 1000 ------- 1 1.0 3.1 11 11
- 0.296429 1 2 cbr 1000 ------- 1 1.0 3.1 11 11
r 0.29942 2 3 cbr 1000 ------- 1 1.0 3.1 9 9
r 0.310429 1 2 cbr 1000 ------- 1 1.0 3.1 11 11
+ 0.310429 2 3 cbr 1000 ------- 1 1.0 3.1 11 11
- 0.310429 2 3 cbr 1000 ------- 1 1.0 3.1 11 11
+ 0.314286 1 2 cbr 1000 ------- 1 1.0 3.1 12 12
- 0.314286 1 2 cbr 1000 ------- 1 1.0 3.1 12 12
r 0.317277 2 3 cbr 1000 ------- 1 1.0 3.1 10 10
r 0.328286 1 2 cbr 1000 ------- 1 1.0 3.1 12 12
+ 0.328286 2 3 cbr 1000 ------- 1 1.0 3.1 12 12
- 0.328286 2 3 cbr 1000 ------- 1 1.0 3.1 12 12
+ 0.332143 1 2 cbr 1000 ------- 1 1.0 3.1 13 13
- 0.332143 1 2 cbr 1000 ------- 1 1.0 3.1 13 13
r 0.335134 2 3 cbr 1000 ------- 1 1.0 3.1 11 11
r 0.346143 1 2 cbr 1000 ------- 1 1.0 3.1 13 13
+ 0.346143 2 3 cbr 1000 ------- 1 1.0 3.1 13 13
- 0.346143 2 3 cbr 1000 ------- 1 1.0 3.1 13 13
+ 0.35 1 2 cbr 1000 ------- 1 1.0 3.1 14 14
- 0.35 1 2 cbr 1000 ------- 1 1.0 3.1 14 14
r 0.352992 2 3 cbr 1000 ------- 1 1.0 3.1 12 12
r 0.364 1 2 cbr 1000 ------- 1 1.0 3.1 14 14
+ 0.364 2 3 cbr 1000 ------- 1 1.0 3.1 14 14
- 0.364 2 3 cbr 1000 ------- 1 1.0 3.1 14 14
+ 0.367857 1 2 cbr 1000 ------- 1 1.0 3.1 15 15
- 0.367857 1 2 cbr 1000 ------- 1 1.0 3.1 15 15
r 0.370849 2 3 cbr 1000 ------- 1 1.0 3.1 13 13
r 0.381857 1 2 cbr 1000 ------- 1 1.0 3.1 15 15
+ 0.381857 2 3 cbr 1000 ------- 1 1.0 3.1 15 15
- 0.381857 2 3 cbr 1000 ------- 1 1.0 3.1 15 15
+ 0.385714 1 2 cbr 1000 ------- 1 1.0 3.1 16 16
- 0.385714 1 2 cbr 1000 ------- 1 1.0 3.1 16 16
r 0.388706 2 3 cbr 1000 ------- 1 1.0 3.1 14 14
r 0.399714 1 2 cbr 1000 ------- 1 1.0 3.1 16 16
+ 0.399714 2 3 cbr 1000 ------- 1 1.0 3.1 16 16
- 0.399714 2 3 cbr 1000 ------- 1 1.0 3.1 16 16
+ 0.403571 1 2 cbr 1000 ------- 1 1.0 3.1 17 17
- 0.403571 1 2 cbr 1000 ------- 1 1.0 3.1 17 17
r 0.406563 2 3 cbr 1000 ------- 1 1.0 3.1 15 15
r 0.417571 1 2 cbr 1000 ------- 1 1.0 3.1 17 17
+ 0.417571 2 3 cbr 1000 ------- 1 1.0 3.1 17 17
- 0.417571 2 3 cbr 1000 ------- 1 1.0 3.1 17 17
+ 0.421429 1 2 cbr 1000 ------- 1 1.0 3.1 18 18
- 0.421429 1 2 cbr 1000 ------- 1 1.0 3.1 18 18
r 0.42442 2 3 cbr 1000 ------- 1 1.0 3.1 16 16
r 0.435429 1 2 cbr 1000 ------- 1 1.0 3.1 18 18
+ 0.435429 2 3 cbr 1000 ------- 1 1.0 3.1 18 18
- 0.435429 2 3 cbr 1000 ------- 1 1.0 3.1 18 18
+ 0.439286 1 2 cbr 1000 ------- 1 1.0 3.1 19 19
- 0.439286 1 2 cbr 1000 ------- 1 1.0 3.1 19 19
r 0.442277 2 3 cbr 1000 ------- 1 1.0 3.1 17 17
r 0.453286 1 2 cbr 1000 ------- 1 1.0 3.1 19 19
+ 0.453286 2 3 cbr 1000 ------- 1 1.0 3.1 19 19
- 0.453286 2 3 cbr 1000 ------- 1 1.0 3.1 19 19
+ 0.457143 1 2 cbr 1000 ------- 1 1.0 3.1 20 20
- 0.457143 1 2 cbr 1000 ------- 1 1.0 3.1 20 20
r 0.460134 2 3 cbr 1000 ------- 1 1.0 3.1 18 18
r 0.471143 1 2 cbr 1000 ------- 1 1.0 3.1 20 20
+ 0.471143 2 3 cbr 1000 ------- 1 1.0 3.1 20 20
- 0.471143 2 3 cbr 1000 ------- 1 1.0 3.1 20 20
+ 0.475 1 2 cbr 1000 ------- 1 1.0 3.1 21 21
- 0.475 1 2 cbr 1000 ------- 1 1.0 3.1 21 21
r 0.477992 2 3 cbr 1000 ------- 1 1.0 3.1 19 19
r 0.489 1 2 cbr 1000 ------- 1 1.0 3.1 21 21
+ 0.489 2 3 cbr 1000 ------- 1 1.0 3.1 21 21
- 0.489 2 3 cbr 1000 ------- 1 1.0 3.1 21 21
+ 0.492857 1 2 cbr 1000 ------- 1 1.0 3.1 22 22
- 0.492857 1 2 cbr 1000 ------- 1 1.0 3.1 22 22
r 0.495849 2 3 cbr 1000 ------- 1 1.0 3.1 20 20
+ 0.5 0 2 tcp 40 ------- 0 0.0 3.0 0 23
- 0.5 0 2 tcp 40 ------- 0 0.0 3.0 0 23
r 0.506857 1 2 cbr 1000 ------- 1 1.0 3.1 22 22
+ 0.506857 2 3 cbr 1000 ------- 1 1.0 3.1 22 22
- 0.506857 2 3 cbr 1000 ------- 1 1.0 3.1 22 22
r 0.51016 0 2 tcp 40 ------- 0 0.0 3.0 0 23
+ 0.51016 2 3 tcp 40 ------- 0 0.0 3.0 0 23
+ 0.510714 1 2 cbr 1000 ------- 1 1.0 3.1 23 24
- 0.510714 1 2 cbr 1000 ------- 1 1.0 3.1 23 24
- 0.511563 2 3 tcp 40 ------- 0 0.0 3.0 0 23
r 0.513706 2 3 cbr 1000 ------- 1 1.0 3.1 21 21
r 0.524714 1 2 cbr 1000 ------- 1 1.0 3.1 23 24
+ 0.524714 2 3 cbr 1000 ------- 1 1.0 3.1 23 24
- 0.524714 2 3 cbr 1000 ------- 1 1.0 3.1 23 24
+ 0.528571 1 2 cbr 1000 ------- 1 1.0 3.1 24 25
- 0.528571 1 2 cbr 1000 ------- 1 1.0 3.1 24 25
r 0.531563 2 3 cbr 1000 ------- 1 1.0 3.1 22 22
r 0.531751 2 3 tcp 40 ------- 0 0.0 3.0 0 23
+ 0.531751 3 2 ack 40 ------- 0 3.0 0.0 0 26
- 0.531751 3 2 ack 40 ------- 0 3.0 0.0 0 26
r 0.542571 1 2 cbr 1000 ------- 1 1.0 3.1 24 25
+ 0.542571 2 3 cbr 1000 ------- 1 1.0 3.1 24 25
- 0.542571 2 3 cbr 1000 ------- 1 1.0 3.1 24 25
+ 0.546429 1 2 cbr 1000 ------- 1 1.0 3.1 25 27
- 0.546429 1 2 cbr 1000 ------- 1 1.0 3.1 25 27
r 0.54942 2 3 cbr 1000 ------- 1 1.0 3.1 23 24
r 0.551939 3 2 ack 40 ------- 0 3.0 0.0 0 26
+ 0.551939 2 0 ack 40 ------- 0 3.0 0.0 0 26
- 0.551939 2 0 ack 40 ------- 0 3.0 0.0 0 26
r 0.560429 1 2 cbr 1000 ------- 1 1.0 3.1 25 27
+ 0.560429 2 3 cbr 1000 ------- 1 1.0 3.1 25 27
- 0.560429 2 3 cbr 1000 ------- 1 1.0 3.1 25 27
r 0.562099 2 0 ack 40 ------- 0 3.0 0.0 0 26
+ 0.562099 0 2 tcp 1040 ------- 0 0.0 3.0 1 28
- 0.562099 0 2 tcp 1040 ------- 0 0.0 3.0 1 28
+ 0.562099 0 2 tcp 1040 ------- 0 0.0 3.0 2 29
+ 0.564286 1 2 cbr 1000 ------- 1 1.0 3.1 26 30
- 0.564286 1 2 cbr 1000 ------- 1 1.0 3.1 26 30
- 0.566259 0 2 tcp 1040 ------- 0 0.0 3.0 2 29
r 0.567277 2 3 cbr 1000 ------- 1 1.0 3.1 24 25
r 0.576259 0 2 tcp 1040 ------- 0 0.0 3.0 1 28
+ 0.576259 2 3 tcp 1040 ------- 0 0.0 3.0 1 28
- 0.576259 2 3 tcp 1040 ------- 0 0.0 3.0 1 28
r 0.578286 1 2 cbr 1000 ------- 1 1.0 3.1 26 30
+ 0.578286 2 3 cbr 1000 ------- 1 1.0 3.1 26 30
r 0.580419 0 2 tcp 1040 ------- 0 0.0 3.0 2 29
+ 0.580419 2 3 tcp 1040 ------- 0 0.0 3.0 2 29
- 0.581154 2 3 cbr 1000 ------- 1 1.0 3.1 26 30
+ 0.582143 1 2 cbr 1000 ------- 1 1.0 3.1 27 31
- 0.582143 1 2 cbr 1000 ------- 1 1.0 3.1 27 31
r 0.585134 2 3 cbr 1000 ------- 1 1.0 3.1 25 27
- 0.585859 2 3 tcp 1040 ------- 0 0.0 3.0 2 29
r 0.596143 1 2 cbr 1000 ------- 1 1.0 3.1 27 31
+ 0.596143 2 3 cbr 1000 ------- 1 1.0 3.1 27 31
- 0.596143 2 3 cbr 1000 ------- 1 1.0 3.1 27 31
+ 0.6 1 2 cbr 1000 ------- 1 1.0 3.1 28 32
- 0.6 1 2 cbr 1000 ------- 1 1.0 3.1 28 32
r 0.601154 2 3 tcp 1040 ------- 0 0.0 3.0 1 28
+ 0.601154 3 2 ack 40 ------- 0 3.0 0.0 1 33
- 0.601154 3 2 ack 40 ------- 0 3.0 0.0 1 33
r 0.605859 2 3 cbr 1000 ------- 1 1.0 3.1 26 30
r 0.610754 2 3 tcp 1040 ------- 0 0.0 3.0 2 29
+ 0.610754 3 2 ack 40 ------- 0 3.0 0.0 2 34
- 0.610754 3 2 ack 40 ------- 0 3.0 0.0 2 34
r 0.614 1 2 cbr 1000 ------- 1 1.0 3.1 28 32
+ 0.614 2 3 cbr 1000 ------- 1 1.0 3.1 28 32
- 0.614 2 3 cbr 1000 ------- 1 1.0 3.1 28 32
+ 0.617857 1 2 cbr 1000 ------- 1 1.0 3.1 29 35
- 0.617857 1 2 cbr 1000 ------- 1 1.0 3.1 29 35
r 0.620849 2 3 cbr 1000 ------- 1 1.0 3.1 27 31
r 0.621342 3 2 ack 40 ------- 0 3.0 0.0 1 33
+ 0.621342 2 0 ack 40 ------- 0 3.0 0.0 1 33
- 0.621342 2 0 ack 40 ------- 0 3.0 0.0 1 33
r 0.630942 3 2 ack 40 ------- 0 3.0 0.0 2 34
+ 0.630942 2 0 ack 40 ------- 0 3.0 0.0 2 34
- 0.630942 2 0 ack 40 ------- 0 3.0 0.0 2 34
r 0.631502 2 0 ack 40 ------- 0 3.0 0.0 1 33
+ 0.631502 0 2 tcp 1040 ------- 0 0.0 3.0 3 36
- 0.631502 0 2 tcp 1040 ------- 0 0.0 3.0 3 36
+ 0.631502 0 2 tcp 1040 ------- 0 0.0 3.0 4 37
r 0.631857 1 2 cbr 1000 ------- 1 1.0 3.1 29 35
+ 0.631857 2 3 cbr 1000 ------- 1 1.0 3.1 29 35
- 0.631857 2 3 cbr 1000 ------- 1 1.0 3.1 29 35
- 0.635662 0 2 tcp 1040 ------- 0 0.0 3.0 4 37
+ 0.635714 1 2 cbr 1000 ------- 1 1.0 3.1 30 38
- 0.635714 1 2 cbr 1000 ------- 1 1.0 3.1 30 38
r 0.638706 2 3 cbr 1000 ------- 1 1.0 3.1 28 32
r 0.641102 2 0 ack 40 ------- 0 3.0 0.0 2 34
+ 0.641102 0 2 tcp 1040 ------- 0 0.0 3.0 5 39
- 0.641102 0 2 tcp 1040 ------- 0 0.0 3.0 5 39
+ 0.641102 0 2 tcp 1040 ------- 0 0.0 3.0 6 40
- 0.645262 0 2 tcp 1040 ------- 0 0.0 3.0 6 40
r 0.645662 0 2 tcp 1040 ------- 0 0.0 3.0 3 36
+ 0.645662 2 3 tcp 1040 ------- 0 0.0 3.0 3 36
- 0.645662 2 3 tcp 1040 ------- 0 0.0 3.0 3 36
r 0.649714 1 2 cbr 1000 ------- 1 1.0 3.1 30 38
+ 0.649714 2 3 cbr 1000 ------- 1 1.0 3.1 30 38
r 0.649822 0 2 tcp 1040 ------- 0 0.0 3.0 4 37
+ 0.649822 2 3 tcp 1040 ------- 0 0.0 3.0 4 37
- 0.650556 2 3 cbr 1000 ------- 1 1.0 3.1 30 38
+ 0.653571 1 2 cbr 1000 ------- 1 1.0 3.1 31 41
- 0.653571 1 2 cbr 1000 ------- 1 1.0 3.1 31 41
r 0.655262 0 2 tcp 1040 ------- 0 0.0 3.0 5 39
+ 0.655262 2 3 tcp 1040 ------- 0 0.0 3.0 5 39
- 0.655262 2 3 tcp 1040 ------- 0 0.0 3.0 4 37
r 0.656563 2 3 cbr 1000 ------- 1 1.0 3.1 29 35
r 0.659422 0 2 tcp 1040 ------- 0 0.0 3.0 6 40
+ 0.659422 2 3 tcp 1040 ------- 0 0.0 3.0 6 40
- 0.660156 2 3 tcp 1040 ------- 0 0.0 3.0 5 39
- 0.66505 2 3 tcp 1040 ------- 0 0.0 3.0 6 40
r 0.667571 1 2 cbr 1000 ------- 1 1.0 3.1 31 41
+ 0.667571 2 3 cbr 1000 ------- 1 1.0 3.1 31 41
- 0.669944 2 3 cbr 1000 ------- 1 1.0 3.1 31 41
r 0.670556 2 3 tcp 1040 ------- 0 0.0 3.0 3 36
+ 0.670556 3 2 ack 40 ------- 0 3.0 0.0 3 42
- 0.670556 3 2 ack 40 ------- 0 3.0 0.0 3 42
+ 0.671429 1 2 cbr 1000 ------- 1 1.0 3.1 32 43
- 0.671429 1 2 cbr 1000 ------- 1 1.0 3.1 32 43
r 0.675262 2 3 cbr 1000 ------- 1 1.0 3.1 30 38
r 0.680156 2 3 tcp 1040 ------- 0 0.0 3.0 4 37
+ 0.680156 3 2 ack 40 ------- 0 3.0 0.0 4 44
- 0.680156 3 2 ack 40 ------- 0 3.0 0.0 4 44
r 0.68505 2 3 tcp 1040 ------- 0 0.0 3.0 5 39
+ 0.68505 3 2 ack 40 ------- 0 3.0 0.0 5 45
- 0.68505 3 2 ack 40 ------- 0 3.0 0.0 5 45
r 0.685429 1 2 cbr 1000 ------- 1 1.0 3.1 32 43
+ 0.685429 2 3 cbr 1000 ------- 1 1.0 3.1 32 43
- 0.685429 2 3 cbr 1000 ------- 1 1.0 3.1 32 43
+ 0.689286 1 2 cbr 1000 ------- 1 1.0 3.1 33 46
- 0.689286 1 2 cbr 1000 ------- 1 1.0 3.1 33 46
r 0.689944 2 3 tcp 1040 ------- 0 0.0 3.0 6 40
+ 0.689944 3 2 ack 40 ------- 0 3.0 0.0 6 47
- 0.689944 3 2 ack 40 ------- 0 3.0 0.0 6 47
r 0.690744 3 2 ack 40 ------- 0 3.0 0.0 3 42
+ 0.690744 2 0 ack 40 ------- 0 3.0 0.0 3 42
- 0.690744 2 0 ack 40 ------- 0 3.0 0.0 3 42
r 0.69465 2 3 cbr 1000 ------- 1 1.0 3.1 31 41
r 0.700344 3 2 ack 40 ------- 0 3.0 0.0 4 44
+ 0.700344 2 0 ack 40 ------- 0 3.0 0.0 4 44
- 0.700344 2 0 ack 40 ------- 0 3.0 0.0 4 44
r 0.700904 2 0 ack 40 ------- 0 3.0 0.0 3 42
+ 0.700904 0 2 tcp 1040 ------- 0 0.0 3.0 7 48
- 0.700904 0 2 tcp 1040 ------- 0 0.0 3.0 7 48
+ 0.700904 0 2 tcp 1040 ------- 0 0.0 3.0 8 49
r 0.703286 1 2 cbr 1000 ------- 1 1.0 3.1 33 46
+ 0.703286 2 3 cbr 1000 ------- 1 1.0 3.1 33 46
- 0.703286 2 3 cbr 1000 ------- 1 1.0 3.1 33 46
- 0.705064 0 2 tcp 1040 ------- 0 0.0 3.0 8 49
r 0.705238 3 2 ack 40 ------- 0 3.0 0.0 5 45
+ 0.705238 2 0 ack 40 ------- 0 3.0 0.0 5 45
- 0.705238 2 0 ack 40 ------- 0 3.0 0.0 5 45
+ 0.707143 1 2 cbr 1000 ------- 1 1.0 3.1 34 50
- 0.707143 1 2 cbr 1000 ------- 1 1.0 3.1 34 50
r 0.710132 3 2 ack 40 ------- 0 3.0 0.0 6 47
+ 0.710132 2 0 ack 40 ------- 0 3.0 0.0 6 47
- 0.710132 2 0 ack 40 ------- 0 3.0 0.0 6 47
r 0.710134 2 3 cbr 1000 ------- 1 1.0 3.1 32 43
r 0.710504 2 0 ack 40 ------- 0 3.0 0.0 4 44
+ 0.710504 0 2 tcp 1040 ------- 0 0.0 3.0 9 51
- 0.710504 0 2 tcp 1040 ------- 0 0.0 3.0 9 51
+ 0.710504 0 2 tcp 1040 ------- 0 0.0 3.0 10 52
- 0.714664 0 2 tcp 1040 ------- 0 0.0 3.0 10 52
r 0.715064 0 2 tcp 1040 ------- 0 0.0 3.0 7 48
+ 0.715064 2 3 tcp 1040 ------- 0 0.0 3.0 7 48
- 0.715064 2 3 tcp 1040 ------- 0 0.0 3.0 7 48
r 0.715398 2 0 ack 40 ------- 0 3.0 0.0 5 45
+ 0.715398 0 2 tcp 1040 ------- 0 0.0 3.0 11 53
+ 0.715398 0 2 tcp 1040 ------- 0 0.0 3.0 12 54
- 0.718824 0 2 tcp 1040 ------- 0 0.0 3.0 11 53
r 0.719224 0 2 tcp 1040 ------- 0 0.0 3.0 8 49
+ 0.719224 2 3 tcp 1040 ------- 0 0.0 3.0 8 49
- 0.719958 2 3 tcp 1040 ------- 0 0.0 3.0 8 49
r 0.720292 2 0 ack 40 ------- 0 3.0 0.0 6 47
+ 0.720292 0 2 tcp 1040 ------- 0 0.0 3.0 13 55
+ 0.720292 0 2 tcp 1040 ------- 0 0.0 3.0 14 56
r 0.721143 1 2 cbr 1000 ------- 1 1.0 3.1 34 50
+ 0.721143 2 3 cbr 1000 ------- 1 1.0 3.1 34 50
- 0.722984 0 2 tcp 1040 ------- 0 0.0 3.0 12 54
r 0.724664 0 2 tcp 1040 ------- 0 0.0 3.0 9 51
+ 0.724664 2 3 tcp 1040 ------- 0 0.0 3.0 9 51
- 0.724852 2 3 cbr 1000 ------- 1 1.0 3.1 34 50
+ 0.725 1 2 cbr 1000 ------- 1 1.0 3.1 35 57
- 0.725 1 2 cbr 1000 ------- 1 1.0 3.1 35 57
- 0.727144 0 2 tcp 1040 ------- 0 0.0 3.0 13 55
r 0.727992 2 3 cbr 1000 ------- 1 1.0 3.1 33 46
r 0.728824 0 2 tcp 1040 ------- 0 0.0 3.0 10 52
+ 0.728824 2 3 tcp 1040 ------- 0 0.0 3.0 10 52
- 0.729558 2 3 tcp 1040 ------- 0 0.0 3.0 9 51
- 0.731304 0 2 tcp 1040 ------- 0 0.0 3.0 14 56
r 0.732984 0 2 tcp 1040 ------- 0 0.0 3.0 11 53
+ 0.732984 2 3 tcp 1040 ------- 0 0.0 3.0 11 53
- 0.734452 2 3 tcp 1040 ------- 0 0.0 3.0 10 52
r 0.737144 0 2 tcp 1040 ------- 0 0.0 3.0 12 54
+ 0.737144 2 3 tcp 1040 ------- 0 0.0 3.0 12 54
r 0.739 1 2 cbr 1000 ------- 1 1.0 3.1 35 57
+ 0.739 2 3 cbr 1000 ------- 1 1.0 3.1 35 57
- 0.739347 2 3 tcp 1040 ------- 0 0.0 3.0 11 53
r 0.739958 2 3 tcp 1040 ------- 0 0.0 3.0 7 48
+ 0.739958 3 2 ack 40 ------- 0 3.0 0.0 7 58
- 0.739958 3 2 ack 40 ------- 0 3.0 0.0 7 58
r 0.741304 0 2 tcp 1040 ------- 0 0.0 3.0 13 55
+ 0.741304 2 3 tcp 1040 ------- 0 0.0 3.0 13 55
+ 0.742857 1 2 cbr 1000 ------- 1 1.0 3.1 36 59
- 0.742857 1 2 cbr 1000 ------- 1 1.0 3.1 36 59
- 0.744241 2 3 tcp 1040 ------- 0 0.0 3.0 12 54
r 0.744852 2 3 tcp 1040 ------- 0 0.0 3.0 8 49
+ 0.744852 3 2 ack 40 ------- 0 3.0 0.0 8 60
- 0.744852 3 2 ack 40 ------- 0 3.0 0.0 8 60
r 0.745464 0 2 tcp 1040 ------- 0 0.0 3.0 14 56
+ 0.745464 2 3 tcp 1040 ------- 0 0.0 3.0 14 56
- 0.749135 2 3 cbr 1000 ------- 1 1.0 3.1 35 57
r 0.749558 2 3 cbr 1000 ------- 1 1.0 3.1 34 50
- 0.753841 2 3 tcp 1040 ------- 0 0.0 3.0 13 55
r 0.754452 2 3 tcp 1040 ------- 0 0.0 3.0 9 51
+ 0.754452 3 2 ack 40 ------- 0 3.0 0.0 9 61
- 0.754452 3 2 ack 40 ------- 0 3.0 0.0 9 61
r 0.756857 1 2 cbr 1000 ------- 1 1.0 3.1 36 59
+ 0.756857 2 3 cbr 1000 ------- 1 1.0 3.1 36 59
- 0.758735 2 3 tcp 1040 ------- 0 0.0 3.0 14 56
r 0.759347 2 3 tcp 1040 ------- 0 0.0 3.0 10 52
+ 0.759347 3 2 ack 40 ------- 0 3.0 0.0 10 62
- 0.759347 3 2 ack 40 ------- 0 3.0 0.0 10 62
r 0.760147 3 2 ack 40 ------- 0 3.0 0.0 7 58
+ 0.760147 2 0 ack 40 ------- 0 3.0 0.0 7 58
- 0.760147 2 0 ack 40 ------- 0 3.0 0.0 7 58
+ 0.760714 1 2 cbr 1000 ------- 1 1.0 3.1 37 63
- 0.760714 1 2 cbr 1000 ------- 1 1.0 3.1 37 63
- 0.763629 2 3 cbr 1000 ------- 1 1.0 3.1 36 59
r 0.764241 2 3 tcp 1040 ------- 0 0.0 3.0 11 53
+ 0.764241 3 2 ack 40 ------- 0 3.0 0.0 11 64
- 0.764241 3 2 ack 40 ------- 0 3.0 0.0 11 64
r 0.765041 3 2 ack 40 ------- 0 3.0 0.0 8 60
+ 0.765041 2 0 ack 40 ------- 0 3.0 0.0 8 60
- 0.765041 2 0 ack 40 ------- 0 3.0 0.0 8 60
r 0.769135 2 3 tcp 1040 ------- 0 0.0 3.0 12 54
+ 0.769135 3 2 ack 40 ------- 0 3.0 0.0 12 65
- 0.769135 3 2 ack 40 ------- 0 3.0 0.0 12 65
r 0.770307 2 0 ack 40 ------- 0 3.0 0.0 7 58
+ 0.770307 0 2 tcp 1040 ------- 0 0.0 3.0 15 66
- 0.770307 0 2 tcp 1040 ------- 0 0.0 3.0 15 66
+ 0.770307 0 2 tcp 1040 ------- 0 0.0 3.0 16 67
r 0.773841 2 3 cbr 1000 ------- 1 1.0 3.1 35 57
- 0.774467 0 2 tcp 1040 ------- 0 0.0 3.0 16 67
r 0.774641 3 2 ack 40 ------- 0 3.0 0.0 9 61
+ 0.774641 2 0 ack 40 ------- 0 3.0 0.0 9 61
- 0.774641 2 0 ack 40 ------- 0 3.0 0.0 9 61
r 0.774714 1 2 cbr 1000 ------- 1 1.0 3.1 37 63
+ 0.774714 2 3 cbr 1000 ------- 1 1.0 3.1 37 63
- 0.774714 2 3 cbr 1000 ------- 1 1.0 3.1 37 63
r 0.775201 2 0 ack 40 ------- 0 3.0 0.0 8 60
+ 0.775201 0 2 tcp 1040 ------- 0 0.0 3.0 17 68
+ 0.775201 0 2 tcp 1040 ------- 0 0.0 3.0 18 69
+ 0.778571 1 2 cbr 1000 ------- 1 1.0 3.1 38 70
- 0.778571 1 2 cbr 1000 ------- 1 1.0 3.1 38 70
- 0.778627 0 2 tcp 1040 ------- 0 0.0 3.0 17 68
r 0.778735 2 3 tcp 1040 ------- 0 0.0 3.0 13 55
+ 0.778735 3 2 ack 40 ------- 0 3.0 0.0 13 71
- 0.778735 3 2 ack 40 ------- 0 3.0 0.0 13 71
r 0.779535 3 2 ack 40 ------- 0 3.0 0.0 10 62
+ 0.779535 2 0 ack 40 ------- 0 3.0 0.0 10 62
- 0.779535 2 0 ack 40 ------- 0 3.0 0.0 10 62
- 0.782787 0 2 tcp 1040 ------- 0 0.0 3.0 18 69
r 0.783629 2 3 tcp 1040 ------- 0 0.0 3.0 14 56
+ 0.783629 3 2 ack 40 ------- 0 3.0 0.0 14 72
- 0.783629 3 2 ack 40 ------- 0 3.0 0.0 14 72
r 0.784429 3 2 ack 40 ------- 0 3.0 0.0 11 64
+ 0.784429 2 0 ack 40 ------- 0 3.0 0.0 11 64
- 0.784429 2 0 ack 40 ------- 0 3.0 0.0 11 64
r 0.784467 0 2 tcp 1040 ------- 0 0.0 3.0 15 66
+ 0.784467 2 3 tcp 1040 ------- 0 0.0 3.0 15 66
- 0.784467 2 3 tcp 1040 ------- 0 0.0 3.0 15 66
r 0.784801 2 0 ack 40 ------- 0 3.0 0.0 9 61
+ 0.784801 0 2 tcp 1040 ------- 0 0.0 3.0 19 73
+ 0.784801 0 2 tcp 1040 ------- 0 0.0 3.0 20 74
- 0.786947 0 2 tcp 1040 ------- 0 0.0 3.0 19 73
r 0.788335 2 3 cbr 1000 ------- 1 1.0 3.1 36 59
r 0.788627 0 2 tcp 1040 ------- 0 0.0 3.0 16 67
+ 0.788627 2 3 tcp 1040 ------- 0 0.0 3.0 16 67
r 0.789323 3 2 ack 40 ------- 0 3.0 0.0 12 65
+ 0.789323 2 0 ack 40 ------- 0 3.0 0.0 12 65
- 0.789323 2 0 ack 40 ------- 0 3.0 0.0 12 65
- 0.789361 2 3 tcp 1040 ------- 0 0.0 3.0 16 67
r 0.789695 2 0 ack 40 ------- 0 3.0 0.0 10 62
+ 0.789695 0 2 tcp 1040 ------- 0 0.0 3.0 21 75
+ 0.789695 0 2 tcp 1040 ------- 0 0.0 3.0 22 76
- 0.791107 0 2 tcp 1040 ------- 0 0.0 3.0 20 74
r 0.792571 1 2 cbr 1000 ------- 1 1.0 3.1 38 70
+ 0.792571 2 3 cbr 1000 ------- 1 1.0 3.1 38 70
r 0.792787 0 2 tcp 1040 ------- 0 0.0 3.0 17 68
+ 0.792787 2 3 tcp 1040 ------- 0 0.0 3.0 17 68
- 0.794255 2 3 cbr 1000 ------- 1 1.0 3.1 38 70
r 0.794589 2 0 ack 40 ------- 0 3.0 0.0 11 64
+ 0.794589 0 2 tcp 1040 ------- 0 0.0 3.0 23 77
+ 0.794589 0 2 tcp 1040 ------- 0 0.0 3.0 24 78
- 0.795267 0 2 tcp 1040 ------- 0 0.0 3.0 21 75
+ 0.796429 1 2 cbr 1000 ------- 1 1.0 3.1 39 79
- 0.796429 1 2 cbr 1000 ------- 1 1.0 3.1 39 79
r 0.796947 0 2 tcp 1040 ------- 0 0.0 3.0 18 69
+ 0.796947 2 3 tcp 1040 ------- 0 0.0 3.0 18 69
r 0.798923 3 2 ack 40 ------- 0 3.0 0.0 13 71
+ 0.798923 2 0 ack 40 ------- 0 3.0 0.0 13 71
- 0.798923 2 0 ack 40 ------- 0 3.0 0.0 13 71
- 0.798961 2 3 tcp 1040 ------- 0 0.0 3.0 17 68
r 0.79942 2 3 cbr 1000 ------- 1 1.0 3.1 37 63
- 0.799427 0 2 tcp 1040 ------- 0 0.0 3.0 22 76
r 0.799483 2 0 ack 40 ------- 0 3.0 0.0 12 65
+ 0.799483 0 2 tcp 1040 ------- 0 0.0 3.0 25 80
+ 0.799483 0 2 tcp 1040 ------- 0 0.0 3.0 26 81
r 0.801107 0 2 tcp 1040 ------- 0 0.0 3.0 19 73
+ 0.801107 2 3 tcp 1040 ------- 0 0.0 3.0 19 73
- 0.803587 0 2 tcp 1040 ------- 0 0.0 3.0 23 77
r 0.803817 3 2 ack 40 ------- 0 3.0 0.0 14 72
+ 0.803817 2 0 ack 40 ------- 0 3.0 0.0 14 72
- 0.803817 2 0 ack 40 ------- 0 3.0 0.0 14 72
- 0.803855 2 3 tcp 1040 ------- 0 0.0 3.0 18 69
r 0.805267 0 2 tcp 1040 ------- 0 0.0 3.0 20 74
+ 0.805267 2 3 tcp 1040 ------- 0 0.0 3.0 20 74
- 0.807747 0 2 tcp 1040 ------- 0 0.0 3.0 24 78
- 0.808749 2 3 tcp 1040 ------- 0 0.0 3.0 19 73
r 0.809083 2 0 ack 40 ------- 0 3.0 0.0 13 71
+ 0.809083 0 2 tcp 1040 ------- 0 0.0 3.0 27 82
+ 0.809083 0 2 tcp 1040 ------- 0 0.0 3.0 28 83
r 0.809361 2 3 tcp 1040 ------- 0 0.0 3.0 15 66
+ 0.809361 3 2 ack 40 ------- 0 3.0 0.0 15 84
- 0.809361 3 2 ack 40 ------- 0 3.0 0.0 15 84
r 0.809427 0 2 tcp 1040 ------- 0 0.0 3.0 21 75
+ 0.809427 2 3 tcp 1040 ------- 0 0.0 3.0 21 75
r 0.810429 1 2 cbr 1000 ------- 1 1.0 3.1 39 79
+ 0.810429 2 3 cbr 1000 ------- 1 1.0 3.1 39 79
- 0.811907 0 2 tcp 1040 ------- 0 0.0 3.0 25 80
r 0.813587 0 2 tcp 1040 ------- 0 0.0 3.0 22 76
+ 0.813587 2 3 tcp 1040 ------- 0 0.0 3.0 22 76
- 0.813643 2 3 tcp 1040 ------- 0 0.0 3.0 20 74
r 0.813977 2 0 ack 40 ------- 0 3.0 0.0 14 72
+ 0.813977 0 2 tcp 1040 ------- 0 0.0 3.0 29 85
+ 0.813977 0 2 tcp 1040 ------- 0 0.0 3.0 30 86
r 0.814255 2 3 tcp 1040 ------- 0 0.0 3.0 16 67
+ 0.814255 3 2 ack 40 ------- 0 3.0 0.0 16 87
- 0.814255 3 2 ack 40 ------- 0 3.0 0.0 16 87
+ 0.814286 1 2 cbr 1000 ------- 1 1.0 3.1 40 88
- 0.814286 1 2 cbr 1000 ------- 1 1.0 3.1 40 88
- 0.816067 0 2 tcp 1040 ------- 0 0.0 3.0 26 81
r 0.817747 0 2 tcp 1040 ------- 0 0.0 3.0 23 77
+ 0.817747 2 3 tcp 1040 ------- 0 0.0 3.0 23 77
- 0.818537 2 3 tcp 1040 ------- 0 0.0 3.0 21 75
r 0.818961 2 3 cbr 1000 ------- 1 1.0 3.1 38 70
- 0.820227 0 2 tcp 1040 ------- 0 0.0 3.0 27 82
r 0.821907 0 2 tcp 1040 ------- 0 0.0 3.0 24 78
+ 0.821907 2 3 tcp 1040 ------- 0 0.0 3.0 24 78
- 0.823431 2 3 cbr 1000 ------- 1 1.0 3.1 39 79
r 0.823855 2 3 tcp 1040 ------- 0 0.0 3.0 17 68
+ 0.823855 3 2 ack 40 ------- 0 3.0 0.0 17 89
- 0.823855 3 2 ack 40 ------- 0 3.0 0.0 17 89
- 0.824387 0 2 tcp 1040 ------- 0 0.0 3.0 28 83
r 0.826067 0 2 tcp 1040 ------- 0 0.0 3.0 25 80
+ 0.826067 2 3 tcp 1040 ------- 0 0.0 3.0 25 80
- 0.828137 2 3 tcp 1040 ------- 0 0.0 3.0 22 76
r 0.828286 1 2 cbr 1000 ------- 1 1.0 3.1 40 88
+ 0.828286 2 3 cbr 1000 ------- 1 1.0 3.1 40 88
- 0.828547 0 2 tcp 1040 ------- 0 0.0 3.0 29 85
r 0.828749 2 3 tcp 1040 ------- 0 0.0 3.0 18 69
+ 0.828749 3 2 ack 40 ------- 0 3.0 0.0 18 90
- 0.828749 3 2 ack 40 ------- 0 3.0 0.0 18 90
r 0.829549 3 2 ack 40 ------- 0 3.0 0.0 15 84
+ 0.829549 2 0 ack 40 ------- 0 3.0 0.0 15 84
- 0.829549 2 0 ack 40 ------- 0 3.0 0.0 15 84
r 0.830227 0 2 tcp 1040 ------- 0 0.0 3.0 26 81
+ 0.830227 2 3 tcp 1040 ------- 0 0.0 3.0 26 81
+ 0.832143 1 2 cbr 1000 ------- 1 1.0 3.1 41 91
- 0.832143 1 2 cbr 1000 ------- 1 1.0 3.1 41 91
- 0.832707 0 2 tcp 1040 ------- 0 0.0 3.0 30 86
- 0.833031 2 3 tcp 1040 ------- 0 0.0 3.0 23 77
r 0.833643 2 3 tcp 1040 ------- 0 0.0 3.0 19 73
+ 0.833643 3 2 ack 40 ------- 0 3.0 0.0 19 92
- 0.833643 3 2 ack 40 ------- 0 3.0 0.0 19 92
r 0.834387 0 2 tcp 1040 ------- 0 0.0 3.0 27 82
+ 0.834387 2 3 tcp 1040 ------- 0 0.0 3.0 27 82
r 0.834443 3 2 ack 40 ------- 0 3.0 0.0 16 87
+ 0.834443 2 0 ack 40 ------- 0 3.0 0.0 16 87
- 0.834443 2 0 ack 40 ------- 0 3.0 0.0 16 87
- 0.837925 2 3 tcp 1040 ------- 0 0.0 3.0 24 78
r 0.838537 2 3 tcp 1040 ------- 0 0.0 3.0 20 74
+ 0.838537 3 2 ack 40 ------- 0 3.0 0.0 20 93
- 0.838537 3 2 ack 40 ------- 0 3.0 0.0 20 93
r 0.838547 0 2 tcp 1040 ------- 0 0.0 3.0 28 83
+ 0.838547 2 3 tcp 1040 ------- 0 0.0 3.0 28 83
r 0.839709 2 0 ack 40 ------- 0 3.0 0.0 15 84
+ 0.839709 0 2 tcp 1040 ------- 0 0.0 3.0 31 94
- 0.839709 0 2 tcp 1040 ------- 0 0.0 3.0 31 94
+ 0.839709 0 2 tcp 1040 ------- 0 0.0 3.0 32 95
r 0.842707 0 2 tcp 1040 ------- 0 0.0 3.0 29 85
+ 0.842707 2 3 tcp 1040 ------- 0 0.0 3.0 29 85
- 0.842819 2 3 tcp 1040 ------- 0 0.0 3.0 25 80
r 0.843431 2 3 tcp 1040 ------- 0 0.0 3.0 21 75
+ 0.843431 3 2 ack 40 ------- 0 3.0 0.0 21 96
- 0.843431 3 2 ack 40 ------- 0 3.0 0.0 21 96
- 0.843869 0 2 tcp 1040 ------- 0 0.0 3.0 32 95
r 0.844043 3 2 ack 40 ------- 0 3.0 0.0 17 89
+ 0.844043 2 0 ack 40 ------- 0 3.0 0.0 17 89
- 0.844043 2 0 ack 40 ------- 0 3.0 0.0 17 89
r 0.844603 2 0 ack 40 ------- 0 3.0 0.0 16 87
+ 0.844603 0 2 tcp 1040 ------- 0 0.0 3.0 33 97
+ 0.844603 0 2 tcp 1040 ------- 0 0.0 3.0 34 98
r 0.846143 1 2 cbr 1000 ------- 1 1.0 3.1 41 91
+ 0.846143 2 3 cbr 1000 ------- 1 1.0 3.1 41 91
r 0.846867 0 2 tcp 1040 ------- 0 0.0 3.0 30 86
+ 0.846867 2 3 tcp 1040 ------- 0 0.0 3.0 30 86
- 0.847714 2 3 cbr 1000 ------- 1 1.0 3.1 40 88
- 0.848029 0 2 tcp 1040 ------- 0 0.0 3.0 33 97
r 0.848137 2 3 cbr 1000 ------- 1 1.0 3.1 39 79
r 0.848937 3 2 ack 40 ------- 0 3.0 0.0 18 90
+ 0.848937 2 0 ack 40 ------- 0 3.0 0.0 18 90
- 0.848937 2 0 ack 40 ------- 0 3.0 0.0 18 90
+ 0.85 1 2 cbr 1000 ------- 1 1.0 3.1 42 99
- 0.85 1 2 cbr 1000 ------- 1 1.0 3.1 42 99
- 0.852189 0 2 tcp 1040 ------- 0 0.0 3.0 34 98
- 0.852419 2 3 tcp 1040 ------- 0 0.0 3.0 26 81
r 0.853031 2 3 tcp 1040 ------- 0 0.0 3.0 22 76
+ 0.853031 3 2 ack 40 ------- 0 3.0 0.0 22 100
- 0.853031 3 2 ack 40 ------- 0 3.0 0.0 22 100
r 0.853831 3 2 ack 40 ------- 0 3.0 0.0 19 92
+ 0.853831 2 0 ack 40 ------- 0 3.0 0.0 19 92
- 0.853831 2 0 ack 40 ------- 0 3.0 0.0 19 92
r 0.853869 0 2 tcp 1040 ------- 0 0.0 3.0 31 94
+ 0.853869 2 3 tcp 1040 ------- 0 0.0 3.0 31 94
r 0.854203 2 0 ack 40 ------- 0 3.0 0.0 17 89
+ 0.854203 0 2 tcp 1040 ------- 0 0.0 3.0 35 101
+ 0.854203 0 2 tcp 1040 ------- 0 0.0 3.0 36 102
- 0.856349 0 2 tcp 1040 ------- 0 0.0 3.0 35 101
- 0.857314 2 3 tcp 1040 ------- 0 0.0 3.0 27 82
r 0.857925 2 3 tcp 1040 ------- 0 0.0 3.0 23 77
+ 0.857925 3 2 ack 40 ------- 0 3.0 0.0 23 103
- 0.857925 3 2 ack 40 ------- 0 3.0 0.0 23 103
r 0.858029 0 2 tcp 1040 ------- 0 0.0 3.0 32 95
+ 0.858029 2 3 tcp 1040 ------- 0 0.0 3.0 32 95
r 0.858725 3 2 ack 40 ------- 0 3.0 0.0 20 93
+ 0.858725 2 0 ack 40 ------- 0 3.0 0.0 20 93
- 0.858725 2 0 ack 40 ------- 0 3.0 0.0 20 93
r 0.859097 2 0 ack 40 ------- 0 3.0 0.0 18 90
+ 0.859097 0 2 tcp 1040 ------- 0 0.0 3.0 37 104
+ 0.859097 0 2 tcp 1040 ------- 0 0.0 3.0 38 105
- 0.860509 0 2 tcp 1040 ------- 0 0.0 3.0 36 102
r 0.862189 0 2 tcp 1040 ------- 0 0.0 3.0 33 97
+ 0.862189 2 3 tcp 1040 ------- 0 0.0 3.0 33 97
- 0.862208 2 3 tcp 1040 ------- 0 0.0 3.0 28 83
r 0.862819 2 3 tcp 1040 ------- 0 0.0 3.0 24 78
+ 0.862819 3 2 ack 40 ------- 0 3.0 0.0 24 106
- 0.862819 3 2 ack 40 ------- 0 3.0 0.0 24 106
r 0.863619 3 2 ack 40 ------- 0 3.0 0.0 21 96
+ 0.863619 2 0 ack 40 ------- 0 3.0 0.0 21 96
- 0.863619 2 0 ack 40 ------- 0 3.0 0.0 21 96
r 0.863991 2 0 ack 40 ------- 0 3.0 0.0 19 92
+ 0.863991 0 2 tcp 1040 ------- 0 0.0 3.0 39 107
r 0.864 1 2 cbr 1000 ------- 1 1.0 3.1 42 99
+ 0.864 2 3 cbr 1000 ------- 1 1.0 3.1 42 99
- 0.864669 0 2 tcp 1040 ------- 0 0.0 3.0 37 104
r 0.866349 0 2 tcp 1040 ------- 0 0.0 3.0 34 98
+ 0.866349 2 3 tcp 1040 ------- 0 0.0 3.0 34 98
- 0.867102 2 3 tcp 1040 ------- 0 0.0 3.0 29 85
r 0.867714 2 3 tcp 1040 ------- 0 0.0 3.0 25 80
+ 0.867714 3 2 ack 40 ------- 0 3.0 0.0 25 108
- 0.867714 3 2 ack 40 ------- 0 3.0 0.0 25 108
+ 0.867857 1 2 cbr 1000 ------- 1 1.0 3.1 43 109
- 0.867857 1 2 cbr 1000 ------- 1 1.0 3.1 43 109
- 0.868829 0 2 tcp 1040 ------- 0 0.0 3.0 38 105
r 0.868885 2 0 ack 40 ------- 0 3.0 0.0 20 93
+ 0.868885 0 2 tcp 1040 ------- 0 0.0 3.0 40 110
r 0.870509 0 2 tcp 1040 ------- 0 0.0 3.0 35 101
+ 0.870509 2 3 tcp 1040 ------- 0 0.0 3.0 35 101
- 0.871996 2 3 cbr 1000 ------- 1 1.0 3.1 41 91
r 0.872419 2 3 cbr 1000 ------- 1 1.0 3.1 40 88
- 0.872989 0 2 tcp 1040 ------- 0 0.0 3.0 39 107
r 0.873219 3 2 ack 40 ------- 0 3.0 0.0 22 100
+ 0.873219 2 0 ack 40 ------- 0 3.0 0.0 22 100
- 0.873219 2 0 ack 40 ------- 0 3.0 0.0 22 100
r 0.873779 2 0 ack 40 ------- 0 3.0 0.0 21 96
+ 0.873779 0 2 tcp 1040 ------- 0 0.0 3.0 41 111
r 0.874669 0 2 tcp 1040 ------- 0 0.0 3.0 36 102
+ 0.874669 2 3 tcp 1040 ------- 0 0.0 3.0 36 102
- 0.876702 2 3 tcp 1040 ------- 0 0.0 3.0 30 86
- 0.877149 0 2 tcp 1040 ------- 0 0.0 3.0 40 110
r 0.877314 2 3 tcp 1040 ------- 0 0.0 3.0 26 81
+ 0.877314 3 2 ack 40 ------- 0 3.0 0.0 26 112
- 0.877314 3 2 ack 40 ------- 0 3.0 0.0 26 112
r 0.878114 3 2 ack 40 ------- 0 3.0 0.0 23 103
+ 0.878114 2 0 ack 40 ------- 0 3.0 0.0 23 103
- 0.878114 2 0 ack 40 ------- 0 3.0 0.0 23 103
r 0.878829 0 2 tcp 1040 ------- 0 0.0 3.0 37 104
+ 0.878829 2 3 tcp 1040 ------- 0 0.0 3.0 37 104
- 0.881309 0 2 tcp 1040 ------- 0 0.0 3.0 41 111
- 0.881596 2 3 tcp 1040 ------- 0 0.0 3.0 31 94
r 0.881857 1 2 cbr 1000 ------- 1 1.0 3.1 43 109
+ 0.881857 2 3 cbr 1000 ------- 1 1.0 3.1 43 109
r 0.882208 2 3 tcp 1040 ------- 0 0.0 3.0 27 82
+ 0.882208 3 2 ack 40 ------- 0 3.0 0.0 27 113
- 0.882208 3 2 ack 40 ------- 0 3.0 0.0 27 113
r 0.882989 0 2 tcp 1040 ------- 0 0.0 3.0 38 105
+ 0.882989 2 3 tcp 1040 ------- 0 0.0 3.0 38 105
r 0.883008 3 2 ack 40 ------- 0 3.0 0.0 24 106
+ 0.883008 2 0 ack 40 ------- 0 3.0 0.0 24 106
- 0.883008 2 0 ack 40 ------- 0 3.0 0.0 24 106
r 0.883379 2 0 ack 40 ------- 0 3.0 0.0 22 100
+ 0.883379 0 2 tcp 1040 ------- 0 0.0 3.0 42 114
- 0.885469 0 2 tcp 1040 ------- 0 0.0 3.0 42 114
+ 0.885714 1 2 cbr 1000 ------- 1 1.0 3.1 44 115