V -t * -v 1.0a5 -a 0
A -t * -n 1 -p 0 -o 0x7fffffff -c 30 -a 1
A -t * -h 1 -m 1073741823 -s 0
c -t * -i 0 -n blue
c -t * -i 1 -n red
n -t * -a 0 -s 0 -S UP -v circle -c black -i black
n -t * -a 1 -s 1 -S UP -v circle -c black -i black
n -t * -a 2 -s 2 -S UP -v circle -c black -i black
n -t * -a 3 -s 3 -S UP -v circle -c black -i black
l -t * -s 0 -d 2 -S UP -r 2000000 -D 0.01 -c black -o right-down
l -t * -s 1 -d 2 -S UP -r 2000000 -D 0.01 -c black -o right-up
l -t * -s 2 -d 3 -S UP -r 1700000 -D 0.02 -c black -o right
+ -t 0.1 -s 1 -d 2 -p cbr -e 1000 -c 1 -i 0 -a 1 -x {1.0 3.1 0 ------- null}
- -t 0.1 -s 1 -d 2 -p cbr -e 1000 -c 1 -i 0 -a 1 -x {1.0 3.1 0 ------- null}
h -t 0.1 -s 1 -d 2 -p cbr -e 1000 -c 1 -i 0 -a 1 -x {1.0 3.1 -1 ------- null}
r -t 0.114 -s 1 -d 2 -p cbr -e 1000 -c 1 -i 0 -a 1 -x {1.0 3.1 0 ------- null}
+ -t 0.114 -s 2 -d 3 -p cbr -e 1000 -c 1 -i 0 -a 1 -x {1.0 3.1 0 ------- null}
- -t 0.114 -s 2 -d 3 -p cbr -e 1000 -c 1 -i 0 -a 1 -x {1.0 3.1 0 ------- null}
h -t 0.114 -s 2 -d 3 -p cbr -e 1000 -c 1 -i 0 -a 1 -x {1.0 3.1 -1 ------- null}
+ -t 0.117857142857143 -s 1 -d 2 -p cbr -e 1000 -c 1 -i 1 -a 1 -x {1.0 3.1 1 ------- null}
- -t 0.117857142857143 -s 1 -d 2 -p cbr -e 1000 -c 1 -i 1 -a 1 -x {1.0 3.1 1 ------- null}
h -t 0.117857142857143 -s 1 -d 2 -p cbr -e 1000 -c 1 -i 1 -a 1 -x {1.0 3.1 -1 ------- null}
r -t 0.131857142857143 -s 1 -d 2 -p cbr -e 1000 -c 1 -i 1 -a 1 -x {1.0 3.1 1 ------- null}
+ -t 0.131857142857143 -s 2 -d 3 -p cbr -e 1000 -c 1 -i 1 -a 1 -x {1.0 3.1 1 ------- null}
- -t 0.131857142857143 -s 2 -d 3 -p cbr -e 1000 -c 1 -i 1 -a 1 -x {1.0 3.1 1 ------- null}
h -t 0.131857142857143 -s 2 -d 3 -p cbr -e 1000 -c 1 -i 1 -a 1 -x {1.0 3.1 -1 ------- null}
+ -t 0.135714285714286 -s 1 -d 2 -p cbr -e 1000 -c 1 -i 2 -a 1 -x {1.0 3.1 2 ------- null}
- -t 0.135714285714286 -s 1 -d 2 -p cbr -e 1000 -c 1 -i 2 -a 1 -x {1.0 3.1 2 ------- null}
h -t 0.135714285714286 -s 1 -d 2 -p cbr -e 1000 -c 1 -i 2 -a 1 -x {1.0 3.1 -1 ------- null}
r -t 0.138705882352941 -s 2 -d 3 -p cbr -e 1000 -c 1 -i 0 -a 1 -x {1.0 3.1 0 ------- null}
r -t 0.149714285714286 -s 1 -d 2 -p cbr -e 1000 -c 1 -i 2 -a 1 -x {1.0 3.1 2 ------- null}
+ -t 0.149714285714286 -s 2 -d 3 -p cbr -e 1000 -c 1 -i 2 -a 1 -x {1.0 3.1 2 ------- null}
- -t 0.149714285714286 -s 2 -d 3 -p cbr -e 1000 -c 1 -i 2 -a 1 -x {1.0 3.1 2 ------- null}
h -t 0.149714285714286 -s 2 -d 3 -p cbr -e 1000 -c 1 -i 2 -a 1 -x {1.0 3.1 -1 ------- null}
+ -t 0.153571428571429 -s 1 -d 2 -p cbr -e 1000 -c 1 -i 3 -a 1 -x {1.0 3.1 3 ------- null}
- -t 0.153571428571429 -s 1 -d 2 -p cbr -e 1000 -c 1 -i 3 -a 1 -x {1.0 3.1 3 ------- null}
h -t 0.153571428571429 -s 1 -d 2 -p cbr -e 1000 -c 1 -i 3 -a 1 -x {1.0 3.1 -1 ------- null}
r -t 0.156563025210084 -s 2 -d 3 -p cbr -e 1000 -c 1 -i 1 -a 1 -x {1.0 3.1 1 ------- null}
r -t 0.167571428571429 -s 1 -d 2 -p cbr -e 1000 -c 1 -i 3 -a 1 -x {1.0 3.1 3 ------- null}
+ -t 0.167571428571429 -s 2 -d 3 -p cbr -e 1000 -c 1 -i 3 -a 1 -x {1.0 3.1 3 ------- null}
- -t 0.167571428571429 -s 2 -d 3 -p cbr -e 1000 -c 1 -i 3 -a 1 -x {1.0 3.1 3 ------- null}
h -t 0.167571428571429 -s 2 -d 3 -p cbr -e 1000 -c 1 -i 3 -a 1 -x {1.0 3.1 -1 ------- null}
+ -t 0.171428571428571 -s 1 -d 2 -p cbr -e 1000 -c 1 -i 4 -a 1 -x {1.0 3.1 4 ------- null}
- -t 0.171428571428571 -s 1 -d 2 -p cbr -e 1000 -c 1 -i 4 -a 1 -x {1.0 3.1 4 ------- null}
h -t 0.171428571428571 -s 1 -d 2 -p cbr -e 1000 -c 1 -i 4 -a 1 -x {1.0 3.1 -1 ------- null}
r -t 0.174420168067227 -s 2 -d 3 -p cbr -e 1000 -c 1 -i 2 -a 1 -x {1.0 3.1 2 ------- null}
r -t 0.185428571428571 -s 1 -d 2 -p cbr -e 1000 -c 1 -i 4 -a 1 -x {1.0 3.1 4 ------- null}
+ -t 0.185428571428571 -s 2 -d 3 -p cbr -e 1000 -c 1 -i 4 -a 1 -x {1.0 3.1 4 ------- null}
- -t 0.185428571428571 -s 2 -d 3 -p cbr -e 1000 -c 1 -i 4 -a 1 -x {1.0 3.1 4 ------- null}
h -t 0.185428571428571 -s 2 -d 3 -p cbr -e 1000 -c 1 -i 4 -a 1 -x {1.0 3.1 -1 ------- null}
+ -t 0.189285714285714 -s 1 -d 2 -p cbr -e 1000 -c 1 -i 5 -a 1 -x {1.0 3.1 5 ------- null}
- -t 0.189285714285714 -s 1 -d 2 -p cbr -e 1000 -c 1 -i 5 -a 1 -x {1.0 3.1 5 ------- null}
h -t 0.189285714285714 -s 1 -d 2 -p cbr -e 1000 -c 1 -i 5 -a 1 -x {1.0 3.1 -1 ------- null}
r -t 0.19227731092437 -s 2 -d 3 -p cbr -e 1000 -c 1 -i 3 -a 1 -x {1.0 3.1 3 ------- null}
r -t 0.203285714285714 -s 1 -d 2 -p cbr -e 1000 -c 1 -i 5 -a 1 -x {1.0 3.1 5 ------- null}
+ -t 0.203285714285714 -s 2 -d 3 -p cbr -e 1000 -c 1 -i 5 -a 1 -x {1.0 3.1 5 ------- null}
- -t 0.203285714285714 -s 2 -d 3 -p cbr -e 1000 -c 1 -i 5 -a 1 -x {1.0 3.1 5 ------- null}
h -t 0.203285714285714 -s 2 -d 3 -p cbr -e 1000 -c 1 -i 5 -a 1 -x {1.0 3.1 -1 ------- null}
+ -t 0.207142857142857 -s 1 -d 2 -p cbr -e 1000 -c 1 -i 6 -a 1 -x {1.0 3.1 6 ------- null}
- -t 0.207142857142857 -s 1 -d 2 -p cbr -e 1000 -c 1 -i 6 -a 1 -x {1.0 3.1 6 ------- null}
h -t 0.207142857142857 -s 1 -d 2 -p cbr -e 1000 -c 1 -i 6 -a 1 -x {1.0 3.1 -1 ------- null}
r -t 0.210134453781513 -s 2 -d 3 -p cbr -e 1000 -c 1 -i 4 -a 1 -x {1.0 3.1 4 ------- null}
r -t 0.221142857142857 -s 1 -d 2 -p cbr -e 1000 -c 1 -i 6 -a 1 -x {1.0 3.1 6 ------- null}
+ -t 0.221142857142857 -s 2 -d 3 -p cbr -e 1000 -c 1 -i 6 -a 1 -x {1.0 3.1 6 ------- null}
- -t 0.221142857142857 -s 2 -d 3 -p cbr -e 1000 -c 1 -i 6 -a 1 -x {1.0 3.1 6 ------- null}
h -t 0.221142857142857 -s 2 -d 3 -p cbr -e 1000 -c 1 -i 6 -a 1 -x {1.0 3.1 -1 ------- null}
+ -t 0.225 -s 1 -d 2 -p cbr -e 1000 -c 1 -i 7 -a 1 -x {1.0 3.1 7 ------- null}
- -t 0.225 -s 1 -d 2 -p cbr -e 1000 -c 1 -i 7 -a 1 -x {1.0 3.1 7 ------- null}
h -t 0.225 -s 1 -d 2 -p cbr -e 1000 -c 1 -i 7 -a 1 -x {1.0 3.1 -1 ------- null}
r -t 0.227991596638655 -s 2 -d 3 -p cbr -e 1000 -c 1 -i 5 -a 1 -x {1.0 3.1 5 ------- null}
r -t 0.239 -s 1 -d 2 -p cbr -e 1000 -c 1 -i 7 -a 1 -x {1.0 3.1 7 ------- null}
+ -t 0.239 -s 2 -d 3 -p cbr -e 1000 -c 1 -i 7 -a 1 -x {1.0 3.1 7 ------- null}
- -t 0.239 -s 2 -d 3 -p cbr -e 1000 -c 1 -i 7 -a 1 -x {1.0 3.1 7 ------- null}
h -t 0.239 -s 2 -d 3 -p cbr -e 1000 -c 1 -i 7 -a 1 -x {1.0 3.1 -1 ------- null}
+ -t 0.242857142857143 -s 1 -d 2 -p cbr -e 1000 -c 1 -i 8 -a 1 -x {1.0 3.1 8 ------- null}
- -t 0.242857142857143 -s 1 -d 2 -p cbr -e 1000 -c 1 -i 8 -a 1 -x {1.0 3.1 8 ------- null}
h -t 0.242857142857143 -s 1 -d 2 -p cbr -e 1000 -c 1 -i 8 -a 1 -x {1.0 3.1 -1 ------- null}
r -t 0.245848739495798 -s 2 -d 3 -p cbr -e 1000 -c 1 -i 6 -a 1 -x {1.0 3.1 6 ------- null}
r -t 0.256857142857143 -s 1 -d 2 -p cbr -e 1000 -c 1 -i 8 -a 1 -x {1.0 3.1 8 ------- null}
+ -t 0.256857142857143 -s 2 -d 3 -p cbr -e 1000 -c 1 -i 8 -a 1 -x {1.0 3.1 8 ------- null}
- -t 0.256857142857143 -s 2 -d 3 -p cbr -e 1000 -c 1 -i 8 -a 1 -x {1.0 3.1 8 ------- null}
h -t 0.256857142857143 -s 2 -d 3 -p cbr -e 1000 -c 1 -i 8 -a 1 -x {1.0 3.1 -1 ------- null}
+ -t 0.260714285714286 -s 1 -d 2 -p cbr -e 1000 -c 1 -i 9 -a 1 -x {1.0 3.1 9 ------- null}
- -t 0.260714285714286 -s 1 -d 2 -p cbr -e 1000 -c 1 -i 9 -a 1 -x {1.0 3.1 9 ------- null}
h -t 0.260714285714286 -s 1 -d 2 -p cbr -e 1000 -c 1 -i 9 -a 1 -x {1.0 3.1 -1 ------- null}
r -t 0.263705882352941 -s 2 -d 3 -p cbr -e 1000 -c 1 -i 7 -a 1 -x {1.0 3.1 7 ------- null}
r -t 0.274714285714286 -s 1 -d 2 -p cbr -e 1000 -c 1 -i 9 -a 1 -x {1.0 3.1 9 ------- null}
+ -t 0.274714285714286 -s 2 -d 3 -p cbr -e 1000 -c 1 -i 9 -a 1 -x {1.0 3.1 9 ------- null}
- -t 0.274714285714286 -s 2 -d 3 -p cbr -e 1000 -c 1 -i 9 -a 1 -x {1.0 3.1 9 ------- null}
h -t 0.274714285714286 -s 2 -d 3 -p cbr -e 1000 -c 1 -i 9 -a 1 -x {1.0 3.1 -1 ------- null}
+ -t 0.278571428571429 -s 1 -d 2 -p cbr -e 1000 -c 1 -i 10 -a 1 -x {1.0 3.1 10 ------- null}
- -t 0.278571428571429 -s 1 -d 2 -p cbr -e 1000 -c 1 -i 10 -a 1 -x {1.0 3.1 10 ------- null}
h -t 0.278571428571429 -s 1 -d 2 -p cbr -e 1000 -c 1 -i 10 -a 1 -x {1.0 3.1 -1 ------- null}
r -t 0.281563025210084 -s 2 -d 3 -p cbr -e 1000 -c 1 -i 8 -a 1 -x {1.0 3.1 8 ------- null}
r -t 0.292571428571429 -s 1 -d 2 -p cbr -e 1000 -c 1 -i 10 -a 1 -x {1.0 3.1 10 ------- null}
+ -t 0.292571428571429 -s 2 -d 3 -p cbr -e 1000 -c 1 -i 10 -a 1 -x {1.0 3.1 10 ------- null}
- -t 0.292571428571429 -s 2 -d 3 -p cbr -e 1000 -c 1 -i 10 -a 1 -x {1.0 3.1 10 ------- null}
h -t 0.292571428571429 -s 2 -d 3 -p cbr -e 1000 -c 1 -i 10 -a 1 -x {1.0 3.1 -1 ------- null}
+ -t 0.296428571428571 -s 1 -d 2 -p cbr -e 1000 -c 1 -i 11 -a 1 -x {1.0 3.1 11 ------- null}
- -t 0.296428571428571 -s 1 -d 2 -p cbr -e 1000 -c 1 -i 11 -a 1 -x {1.0 3.1 11 ------- null}
h -t 0.296428571428571 -s 1 -d 2 -p cbr -e 1000 -c 1 -i 11 -a 1 -x {1.0 3.1 -1 ------- null}
r -t 0.299420168067227 -s 2 -d 3 -p cbr -e 1000 -c 1 -i 9 -a 1 -x {1.0 3.1 9 ------- null}
r -t 0.310428571428571 -s 1 -d 2 -p cbr -e 1000 -c 1 -i 11 -a 1 -x {1.0 3.1 11 ------- null}
+ -t 0.310428571428571 -s 2 -d 3 -p cbr -e 1000 -c 1 -i 11 -a 1 -x {1.0 3.1 11 ------- null}
- -t 0.310428571428571 -s 2 -d 3 -p cbr -e 1000 -c 1 -i 11 -a 1 -x {1.0 3.1 11 ------- null}
h -t 0.310428571428571 -s 2 -d 3 -p cbr -e 1000 -c 1 -i 11 -a 1 -x {1.0 3.1 -1 ------- null}
+ -t 0.314285714285714 -s 1 -d 2 -p cbr -e 1000 -c 1 -i 12 -a 1 -x {1.0 3.1 12 ------- null}
- -t 0.314285714285714 -s 1 -d 2 -p cbr -e 1000 -c 1 -i 12 -a 1 -x {1.0 3.1 12 ------- null}
h -t 0.314285714285714 -s 1 -d 2 -p cbr -e 1000 -c 1 -i 12 -a 1 -x {1.0 3.1 -1 ------- null}
r -t 0.31727731092437 -s 2 -d 3 -p cbr -e 1000 -c 1 -i 10 -a 1 -x {1.0 3.1 10 ------- null}
r -t 0.328285714285714 -s 1 -d 2 -p cbr -e 1000 -c 1 -i 12 -a 1 -x {1.0 3.1 12 ------- null}
+ -t 0.328285714285714 -s 2 -d 3 -p cbr -e 1000 -c 1 -i 12 -a 1 -x {1.0 3.1 12 ------- null}
- -t 0.328285714285714 -s 2 -d 3 -p cbr -e 1000 -c 1 -i 12 -a 1 -x {1.0 3.1 12 ------- null}
h -t 0.328285714285714 -s 2 -d 3 -p cbr -e 1000 -c 1 -i 12 -a 1 -x {1.0 3.1 -1 ------- null}
+ -t 0.332142857142857 -s 1 -d 2 -p cbr -e 1000 -c 1 -i 13 -a 1 -x {1.0 3.1 13 ------- null}
- -t 0.332142857142857 -s 1 -d 2 -p cbr -e 1000 -c 1 -i 13 -a 1 -x {1.0 3.1 13 ------- null}
h -t 0.332142857142857 -s 1 -d 2 -p cbr -e 1000 -c 1 -i 13 -a 1 -x {1.0 3.1 -1 ------- null}
r -t 0.335134453781513 -s 2 -d 3 -p cbr -e 1000 -c 1 -i 11 -a 1 -x {1.0 3.1 11 ------- null}
r -t 0.346142857142857 -s 1 -d 2 -p cbr -e 1000 -c 1 -i 13 -a 1 -x {1.0 3.1 13 ------- null}
+ -t 0.346142857142857 -s 2 -d 3 -p cbr -e 1000 -c 1 -i 13 -a 1 -x {1.0 3.1 13 ------- null}
- -t 0.346142857142857 -s 2 -d 3 -p cbr -e 1000 -c 1 -i 13 -a 1 -x {1.0 3.1 13 ------- null}
h -t 0.346142857142857 -s 2 -d 3 -p cbr -e 1000 -c 1 -i 13 -a 1 -x {1.0 3.1 -1 ------- null}
+ -t 0.35 -s 1 -d 2 -p cbr -e 1000 -c 1 -i 14 -a 1 -x {1.0 3.1 14 ------- null}
- -t 0.35 -s 1 -d 2 -p cbr -e 1000 -c 1 -i 14 -a 1 -x {1.0 3.1 14 ------- null}
h -t 0.35 -s 1 -d 2 -p cbr -e 1000 -c 1 -i 14 -a 1 -x {1.0 3.1 -1 ------- null}
r -t 0.352991596638655 -s 2 -d 3 -p cbr -e 1000 -c 1 -i 12 -a 1 -x {1.0 3.1 12 ------- null}
r -t 0.364 -s 1 -d 2 -p cbr -e 1000 -c 1 -i 14 -a 1 -x {1.0 3.1 14 ------- null}
+ -t 0.364 -s 2 -d 3 -p cbr -e 1000 -c 1 -i 14 -a 1 -x {1.0 3.1 14 ------- null}
- -t 0.364 -s 2 -d 3 -p cbr -e 1000 -c 1 -i 14 -a 1 -x {1.0 3.1 14 ------- null}
h -t 0.364 -s 2 -d 3 -p cbr -e 1000 -c 1 -i 14 -a 1 -x {1.0 3.1 -1 ------- null}
+ -t 0.367857142857143 -s 1 -d 2 -p cbr -e 1000 -c 1 -i 15 -a 1 -x {1.0 3.1 15 ------- null}
- -t 0.367857142857143 -s 1 -d 2 -p cbr -e 1000 -c 1 -i 15 -a 1 -x {1.0 3.1 15 ------- null}
h -t 0.367857142857143 -s 1 -d 2 -p cbr -e 1000 -c 1 -i 15 -a 1 -x {1.0 3.1 -1 ------- null}
r -t 0.370848739495798 -s 2 -d 3 -p cbr -e 1000 -c 1 -i 13 -a 1 -x {1.0 3.1 13 ------- null}
r -t 0.381857142857143 -s 1 -d 2 -p cbr -e 1000 -c 1 -i 15 -a 1 -x {1.0 3.1 15 ------- null}
+ -t 0.381857142857143 -s 2 -d 3 -p cbr -e 1000 -c 1 -i 15 -a 1 -x {1.0 3.1 15 ------- null}
- -t 0.381857142857143 -s 2 -d 3 -p cbr -e 1000 -c 1 -i 15 -a 1 -x {1.0 3.1 15 ------- null}
h -t 0.381857142857143 -s 2 -d 3 -p cbr -e 1000 -c 1 -i 15 -a 1 -x {1.0 3.1 -1 ------- null}
+ -t 0.385714285714286 -s 1 -d 2 -p cbr -e 1000 -c 1 -i 16 -a 1 -x {1.0 3.1 16 ------- null}
- -t 0.385714285714286 -s 1 -d 2 -p cbr -e 1000 -c 1 -i 16 -a 1 -x {1.0 3.1 16 ------- null}
h -t 0.385714285714286 -s 1 -d 2 -p cbr -e 1000 -c 1 -i 16 -a 1 -x {1.0 3.1 -1 ------- null}
r -t 0.388705882352941 -s 2 -d 3 -p cbr -e 1000 -c 1 -i 14 -a 1 -x {1.0 3.1 14 ------- null}
r -t 0.399714285714286 -s 1 -d 2 -p cbr -e 1000 -c 1 -i 16 -a 1 -x {1.0 3.1 16 ------- null}
+ -t 0.399714285714286 -s 2 -d 3 -p cbr -e 1000 -c 1 -i 16 -a 1 -x {1.0 3.1 16 ------- null}
- -t 0.399714285714286 -s 2 -d 3 -p cbr -e 1000 -c 1 -i 16 -a 1 -x {1.0 3.1 16 ------- null}
h -t 0.399714285714286 -s 2 -d 3 -p cbr -e 1000 -c 1 -i 16 -a 1 -x {1.0 3.1 -1 ------- null}
+ -t 0.403571428571428 -s 1 -d 2 -p cbr -e 1000 -c 1 -i 17 -a 1 -x {1.0 3.1 17 ------- null}
- -t 0.403571428571428 -s 1 -d 2 -p cbr -e 1000 -c 1 -i 17 -a 1 -x {1.0 3.1 17 ------- null}
h -t 0.403571428571428 -s 1 -d 2 -p cbr -e 1000 -c 1 -i 17 -a 1 -x {1.0 3.1 -1 ------- null}
r -t 0.406563025210084 -s 2 -d 3 -p cbr -e 1000 -c 1 -i 15 -a 1 -x {1.0 3.1 15 ------- null}
r -t 0.417571428571428 -s 1 -d 2 -p cbr -e 1000 -c 1 -i 17 -a 1 -x {1.0 3.1 17 ------- null}
+ -t 0.417571428571428 -s 2 -d 3 -p cbr -e 1000 -c 1 -i 17 -a 1 -x {1.0 3.1 17 ------- null}
- -t 0.417571428571428 -s 2 -d 3 -p cbr -e 1000 -c 1 -i 17 -a 1 -x {1.0 3.1 17 ------- null}
h -t 0.417571428571428 -s 2 -d 3 -p cbr -e 1000 -c 1 -i 17 -a 1 -x {1.0 3.1 -1 ------- null}
+ -t 0.421428571428571 -s 1 -d 2 -p cbr -e 1000 -c 1 -i 18 -a 1 -x {1.0 3.1 18 ------- null}
- -t 0.421428571428571 -s 1 -d 2 -p cbr -e 1000 -c 1 -i 18 -a 1 -x {1.0 3.1 18 ------- null}
h -t 0.421428571428571 -s 1 -d 2 -p cbr -e 1000 -c 1 -i 18 -a 1 -x {1.0 3.1 -1 ------- null}
r -t 0.424420168067227 -s 2 -d 3 -p cbr -e 1000 -c 1 -i 16 -a 1 -x {1.0 3.1 16 ------- null}
r -t 0.435428571428571 -s 1 -d 2 -p cbr -e 1000 -c 1 -i 18 -a 1 -x {1.0 3.1 18 ------- null}
+ -t 0.435428571428571 -s 2 -d 3 -p cbr -e 1000 -c 1 -i 18 -a 1 -x {1.0 3.1 18 ------- null}
- -t 0.435428571428571 -s 2 -d 3 -p cbr -e 1000 -c 1 -i 18 -a 1 -x {1.0 3.1 18 ------- null}
h -t 0.435428571428571 -s 2 -d 3 -p cbr -e 1000 -c 1 -i 18 -a 1 -x {1.0 3.1 -1 ------- null}
+ -t 0.439285714285714 -s 1 -d 2 -p cbr -e 1000 -c 1 -i 19 -a 1 -x {1.0 3.1 19 ------- null}
- -t 0.439285714285714 -s 1 -d 2 -p cbr -e 1000 -c 1 -i 19 -a 1 -x {1.0 3.1 19 ------- null}
h -t 0.439285714285714 -s 1 -d 2 -p cbr -e 1000 -c 1 -i 19 -a 1 -x {1.0 3.1 -1 ------- null}
r -t 0.44227731092437 -s 2 -d 3 -p cbr -e 1000 -c 1 -i 17 -a 1 -x {1.0 3.1 17 ------- null}
r -t 0.453285714285714 -s 1 -d 2 -p cbr -e 1000 -c 1 -i 19 -a 1 -x {1.0 3.1 19 ------- null}
+ -t 0.453285714285714 -s 2 -d 3 -p cbr -e 1000 -c 1 -i 19 -a 1 -x {1.0 3.1 19 ------- null}
- -t 0.453285714285714 -s 2 -d 3 -p cbr -e 1000 -c 1 -i 19 -a 1 -x {1.0 3.1 19 ------- null}
h -t 0.453285714285714 -s 2 -d 3 -p cbr -e 1000 -c 1 -i 19 -a 1 -x {1.0 3.1 -1 ------- null}
+ -t 0.457142857142857 -s 1 -d 2 -p cbr -e 1000 -c 1 -i 20 -a 1 -x {1.0 3.1 20 ------- null}
- -t 0.457142857142857 -s 1 -d 2 -p cbr -e 1000 -c 1 -i 20 -a 1 -x {1.0 3.1 20 ------- null}
h -t 0.457142857142857 -s 1 -d 2 -p cbr -e 1000 -c 1 -i 20 -a 1 -x {1.0 3.1 -1 ------- null}
r -t 0.460134453781513 -s 2 -d 3 -p cbr -e 1000 -c 1 -i 18 -a 1 -x {1.0 3.1 18 ------- null}
r -t 0.471142857142857 -s 1 -d 2 -p cbr -e 1000 -c 1 -i 20 -a 1 -x {1.0 3.1 20 ------- null}
+ -t 0.471142857142857 -s 2 -d 3 -p cbr -e 1000 -c 1 -i 20 -a 1 -x {1.0 3.1 20 ------- null}
- -t 0.471142857142857 -s 2 -d 3 -p cbr -e 1000 -c 1 -i 20 -a 1 -x {1.0 3.1 20 ------- null}
h -t 0.471142857142857 -s 2 -d 3 -p cbr -e 1000 -c 1 -i 20 -a 1 -x {1.0 3.1 -1 ------- null}
+ -t 0.475 -s 1 -d 2 -p cbr -e 1000 -c 1 -i 21 -a 1 -x {1.0 3.1 21 ------- null}
- -t 0.475 -s 1 -d 2 -p cbr -e 1000 -c 1 -i 21 -a 1 -x {1.0 3.1 21 ------- null}
h -t 0.475 -s 1 -d 2 -p cbr -e 1000 -c 1 -i 21 -a 1 -x {1.0 3.1 -1 ------- null}
r -t 0.477991596638655 -s 2 -d 3 -p cbr -e 1000 -c 1 -i 19 -a 1 -x {1.0 3.1 19 ------- null}
r -t 0.489 -s 1 -d 2 -p cbr -e 1000 -c 1 -i 21 -a 1 -x {1.0 3.1 21 ------- null}
+ -t 0.489 -s 2 -d 3 -p cbr -e 1000 -c 1 -i 21 -a 1 -x {1.0 3.1 21 ------- null}
- -t 0.489 -s 2 -d 3 -p cbr -e 1000 -c 1 -i 21 -a 1 -x {1.0 3.1 21 ------- null}
h -t 0.489 -s 2 -d 3 -p cbr -e 1000 -c 1 -i 21 -a 1 -x {1.0 3.1 -1 ------- null}
+ -t 0.492857142857143 -s 1 -d 2 -p cbr -e 1000 -c 1 -i 22 -a 1 -x {1.0 3.1 22 ------- null}
- -t 0.492857142857143 -s 1 -d 2 -p cbr -e 1000 -c 1 -i 22 -a 1 -x {1.0 3.1 22 ------- null}
h -t 0.492857142857143 -s 1 -d 2 -p cbr -e 1000 -c 1 -i 22 -a 1 -x {1.0 3.1 -1 ------- null}
r -t 0.495848739495798 -s 2 -d 3 -p cbr -e 1000 -c 1 -i 20 -a 1 -x {1.0 3.1 20 ------- null}
+ -t 0.5 -s 0 -d 2 -p tcp -e 40 -c 0 -i 23 -a 0 -x {0.0 3.0 0 ------- null}
- -t 0.5 -s 0 -d 2 -p tcp -e 40 -c 0 -i 23 -a 0 -x {0.0 3.0 0 ------- null}
h -t 0.5 -s 0 -d 2 -p tcp -e 40 -c 0 -i 23 -a 0 -x {0.0 3.0 -1 ------- null}
r -t 0.506857142857143 -s 1 -d 2 -p cbr -e 1000 -c 1 -i 22 -a 1 -x {1.0 3.1 22 ------- null}
+ -t 0.506857142857143 -s 2 -d 3 -p cbr -e 1000 -c 1 -i 22 -a 1 -x {1.0 3.1 22 ------- null}
- -t 0.506857142857143 -s 2 -d 3 -p cbr -e 1000 -c 1 -i 22 -a 1 -x {1.0 3.1 22 ------- null}
h -t 0.506857142857143 -s 2 -d 3 -p cbr -e 1000 -c 1 -i 22 -a 1 -x {1.0 3.1 -1 ------- null}
r -t 0.51016 -s 0 -d 2 -p tcp -e 40 -c 0 -i 23 -a 0 -x {0.0 3.0 0 ------- null}
+ -t 0.51016 -s 2 -d 3 -p tcp -e 40 -c 0 -i 23 -a 0 -x {0.0 3.0 0 ------- null}
+ -t 0.510714285714286 -s 1 -d 2 -p cbr -e 1000 -c 1 -i 24 -a 1 -x {1.0 3.1 23 ------- null}
- -t 0.510714285714286 -s 1 -d 2 -p cbr -e 1000 -c 1 -i 24 -a 1 -x {1.0 3.1 23 ------- null}
h -t 0.510714285714286 -s 1 -d 2 -p cbr -e 1000 -c 1 -i 24 -a 1 -x {1.0 3.1 -1 ------- null}
- -t 0.511563025210084 -s 2 -d 3 -p tcp -e 40 -c 0 -i 23 -a 0 -x {0.0 3.0 0 ------- null}
h -t 0.511563025210084 -s 2 -d 3 -p tcp -e 40 -c 0 -i 23 -a 0 -x {0.0 3.0 -1 ------- null}
r -t 0.513705882352941 -s 2 -d 3 -p cbr -e 1000 -c 1 -i 21 -a 1 -x {1.0 3.1 21 ------- null}
r -t 0.524714285714286 -s 1 -d 2 -p cbr -e 1000 -c 1 -i 24 -a 1 -x {1.0 3.1 23 ------- null}
+ -t 0.524714285714286 -s 2 -d 3 -p cbr -e 1000 -c 1 -i 24 -a 1 -x {1.0 3.1 23 ------- null}
- -t 0.524714285714286 -s 2 -d 3 -p cbr -e 1000 -c 1 -i 24 -a 1 -x {1.0 3.1 23 ------- null}
h -t 0.524714285714286 -s 2 -d 3 -p cbr -e 1000 -c 1 -i 24 -a 1 -x {1.0 3.1 -1 ------- null}
+ -t 0.528571428571428 -s 1 -d 2 -p cbr -e 1000 -c 1 -i 25 -a 1 -x {1.0 3.1 24 ------- null}
- -t 0.528571428571428 -s 1 -d 2 -p cbr -e 1000 -c 1 -i 25 -a 1 -x {1.0 3.1 24 ------- null}
h -t 0.528571428571428 -s 1 -d 2 -p cbr -e 1000 -c 1 -i 25 -a 1 -x {1.0 3.1 -1 ------- null}
r -t 0.531563025210084 -s 2 -d 3 -p cbr -e 1000 -c 1 -i 22 -a 1 -x {1.0 3.1 22 ------- null}
r -t 0.531751260504202 -s 2 -d 3 -p tcp -e 40 -c 0 -i 23 -a 0 -x {0.0 3.0 0 ------- null}
+ -t 0.531751260504202 -s 3 -d 2 -p ack -e 40 -c 0 -i 26 -a 0 -x {3.0 0.0 0 ------- null}
- -t 0.531751260504202 -s 3 -d 2 -p ack -e 40 -c 0 -i 26 -a 0 -x {3.0 0.0 0 ------- null}
h -t 0.531751260504202 -s 3 -d 2 -p ack -e 40 -c 0 -i 26 -a 0 -x {3.0 0.0 -1 ------- null}
r -t 0.542571428571428 -s 1 -d 2 -p cbr -e 1000 -c 1 -i 25 -a 1 -x {1.0 3.1 24 ------- null}
+ -t 0.542571428571428 -s 2 -d 3 -p cbr -e 1000 -c 1 -i 25 -a 1 -x {1.0 3.1 24 ------- null}
- -t 0.542571428571428 -s 2 -d 3 -p cbr -e 1000 -c 1 -i 25 -a 1 -x {1.0 3.1 24 ------- null}
h -t 0.542571428571428 -s 2 -d 3 -p cbr -e 1000 -c 1 -i 25 -a 1 -x {1.0 3.1 -1 ------- null}
+ -t 0.546428571428571 -s 1 -d 2 -p cbr -e 1000 -c 1 -i 27 -a 1 -x {1.0 3.1 25 ------- null}
- -t 0.546428571428571 -s 1 -d 2 -p cbr -e 1000 -c 1 -i 27 -a 1 -x {1.0 3.1 25 ------- null}
h -t 0.546428571428571 -s 1 -d 2 -p cbr -e 1000 -c 1 -i 27 -a 1 -x {1.0 3.1 -1 ------- null}
r -t 0.549420168067227 -s 2 -d 3 -p cbr -e 1000 -c 1 -i 24 -a 1 -x {1.0 3.1 23 ------- null}
r -t 0.551939495798319 -s 3 -d 2 -p ack -e 40 -c 0 -i 26 -a 0 -x {3.0 0.0 0 ------- null}
+ -t 0.551939495798319 -s 2 -d 0 -p ack -e 40 -c 0 -i 26 -a 0 -x {3.0 0.0 0 ------- null}
- -t 0.551939495798319 -s 2 -d 0 -p ack -e 40 -c 0 -i 26 -a 0 -x {3.0 0.0 0 ------- null}
h -t 0.551939495798319 -s 2 -d 0 -p ack -e 40 -c 0 -i 26 -a 0 -x {3.0 0.0 -1 ------- null}
r -t 0.560428571428571 -s 1 -d 2 -p cbr -e 1000 -c 1 -i 27 -a 1 -x {1.0 3.1 25 ------- null}
+ -t 0.560428571428571 -s 2 -d 3 -p cbr -e 1000 -c 1 -i 27 -a 1 -x {1.0 3.1 25 ------- null}
- -t 0.560428571428571 -s 2 -d 3 -p cbr -e 1000 -c 1 -i 27 -a 1 -x {1.0 3.1 25 ------- null}
h -t 0.560428571428571 -s 2 -d 3 -p cbr -e 1000 -c 1 -i 27 -a 1 -x {1.0 3.1 -1 ------- null}
r -t 0.562099495798319 -s 2 -d 0 -p ack -e 40 -c 0 -i 26 -a 0 -x {3.0 0.0 0 ------- null}
+ -t 0.562099495798319 -s 0 -d 2 -p tcp -e 1040 -c 0 -i 28 -a 0 -x {0.0 3.0 1 ------- null}
- -t 0.562099495798319 -s 0 -d 2 -p tcp -e 1040 -c 0 -i 28 -a 0 -x {0.0 3.0 1 ------- null}
h -t 0.562099495798319 -s 0 -d 2 -p tcp -e 1040 -c 0 -i 28 -a 0 -x {0.0 3.0 -1 ------- null}
+ -t 0.562099495798319 -s 0 -d 2 -p tcp -e 1040 -c 0 -i 29 -a 0 -x {0.0 3.0 2 ------- null}
+ -t 0.564285714285714 -s 1 -d 2 -p cbr -e 1000 -c 1 -i 30 -a 1 -x {1.0 3.1 26 ------- null}
- -t 0.564285714285714 -s 1 -d 2 -p cbr -e 1000 -c 1 -i 30 -a 1 -x {1.0 3.1 26 ------- null}
h -t 0.564285714285714 -s 1 -d 2 -p cbr -e 1000 -c 1 -i 30 -a 1 -x {1.0 3.1 -1 ------- null}
- -t 0.566259495798319 -s 0 -d 2 -p tcp -e 1040 -c 0 -i 29 -a 0 -x {0.0 3.0 2 ------- null}
h -t 0.566259495798319 -s 0 -d 2 -p tcp -e 1040 -c 0 -i 29 -a 0 -x {0.0 3.0 -1 ------- null}
r -t 0.56727731092437 -s 2 -d 3 -p cbr -e 1000 -c 1 -i 25 -a 1 -x {1.0 3.1 24 ------- null}
r -t 0.576259495798319 -s 0 -d 2 -p tcp -e 1040 -c 0 -i 28 -a 0 -x {0.0 3.0 1 ------- null}
+ -t 0.576259495798319 -s 2 -d 3 -p tcp -e 1040 -c 0 -i 28 -a 0 -x {0.0 3.0 1 ------- null}
- -t 0.576259495798319 -s 2 -d 3 -p tcp -e 1040 -c 0 -i 28 -a 0 -x {0.0 3.0 1 ------- null}
h -t 0.576259495798319 -s 2 -d 3 -p tcp -e 1040 -c 0 -i 28 -a 0 -x {0.0 3.0 -1 ------- null}
r -t 0.578285714285714 -s 1 -d 2 -p cbr -e 1000 -c 1 -i 30 -a 1 -x {1.0 3.1 26 ------- null}
+ -t 0.578285714285714 -s 2 -d 3 -p cbr -e 1000 -c 1 -i 30 -a 1 -x {1.0 3.1 26 ------- null}
r -t 0.580419495798319 -s 0 -d 2 -p tcp -e 1040 -c 0 -i 29 -a 0 -x {0.0 3.0 2 ------- null}
+ -t 0.580419495798319 -s 2 -d 3 -p tcp -e 1040 -c 0 -i 29 -a 0 -x {0.0 3.0 2 ------- null}
- -t 0.581153613445378 -s 2 -d 3 -p cbr -e 1000 -c 1 -i 30 -a 1 -x {1.0 3.1 26 ------- null}
h -t 0.581153613445378 -s 2 -d 3 -p cbr -e 1000 -c 1 -i 30 -a 1 -x {1.0 3.1 -1 ------- null}
+ -t 0.582142857142857 -s 1 -d 2 -p cbr -e 1000 -c 1 -i 31 -a 1 -x {1.0 3.1 27 ------- null}
- -t 0.582142857142857 -s 1 -d 2 -p cbr -e 1000 -c 1 -i 31 -a 1 -x {1.0 3.1 27 ------- null}
h -t 0.582142857142857 -s 1 -d 2 -p cbr -e 1000 -c 1 -i 31 -a 1 -x {1.0 3.1 -1 ------- null}
r -t 0.585134453781513 -s 2 -d 3 -p cbr -e 1000 -c 1 -i 27 -a 1 -x {1.0 3.1 25 ------- null}
- -t 0.585859495798319 -s 2 -d 3 -p tcp -e 1040 -c 0 -i 29 -a 0 -x {0.0 3.0 2 ------- null}
h -t 0.585859495798319 -s 2 -d 3 -p tcp -e 1040 -c 0 -i 29 -a 0 -x {0.0 3.0 -1 ------- null}
r -t 0.596142857142857 -s 1 -d 2 -p cbr -e 1000 -c 1 -i 31 -a 1 -x {1.0 3.1 27 ------- null}
+ -t 0.596142857142857 -s 2 -d 3 -p cbr -e 1000 -c 1 -i 31 -a 1 -x {1.0 3.1 27 ------- null}
- -t 0.596142857142857 -s 2 -d 3 -p cbr -e 1000 -c 1 -i 31 -a 1 -x {1.0 3.1 27 ------- null}
h -t 0.596142857142857 -s 2 -d 3 -p cbr -e 1000 -c 1 -i 31 -a 1 -x {1.0 3.1 -1 ------- null}
+ -t 0.6 -s 1 -d 2 -p cbr -e 1000 -c 1 -i 32 -a 1 -x {1.0 3.1 28 ------- null}
- -t 0.6 -s 1 -d 2 -p cbr -e 1000 -c 1 -i 32 -a 1 -x {1.0 3.1 28 ------- null}
h -t 0.6 -s 1 -d 2 -p cbr -e 1000 -c 1 -i 32 -a 1 -x {1.0 3.1 -1 ------- null}
r -t 0.601153613445378 -s 2 -d 3 -p tcp -e 1040 -c 0 -i 28 -a 0 -x {0.0 3.0 1 ------- null}
+ -t 0.601153613445378 -s 3 -d 2 -p ack -e 40 -c 0 -i 33 -a 0 -x {3.0 0.0 1 ------- null}
- -t 0.601153613445378 -s 3 -d 2 -p ack -e 40 -c 0 -i 33 -a 0 -x {3.0 0.0 1 ------- null}
h -t 0.601153613445378 -s 3 -d 2 -p ack -e 40 -c 0 -i 33 -a 0 -x {3.0 0.0 -1 ------- null}
r -t 0.605859495798319 -s 2 -d 3 -p cbr -e 1000 -c 1 -i 30 -a 1 -x {1.0 3.1 26 ------- null}
r -t 0.610753613445378 -s 2 -d 3 -p tcp -e 1040 -c 0 -i 29 -a 0 -x {0.0 3.0 2 ------- null}
+ -t 0.610753613445378 -s 3 -d 2 -p ack -e 40 -c 0 -i 34 -a 0 -x {3.0 0.0 2 ------- null}
- -t 0.610753613445378 -s 3 -d 2 -p ack -e 40 -c 0 -i 34 -a 0 -x {3.0 0.0 2 ------- null}
h -t 0.610753613445378 -s 3 -d 2 -p ack -e 40 -c 0 -i 34 -a 0 -x {3.0 0.0 -1 ------- null}
r -t 0.614 -s 1 -d 2 -p cbr -e 1000 -c 1 -i 32 -a 1 -x {1.0 3.1 28 ------- null}
+ -t 0.614 -s 2 -d 3 -p cbr -e 1000 -c 1 -i 32 -a 1 -x {1.0 3.1 28 ------- null}
- -t 0.614 -s 2 -d 3 -p cbr -e 1000 -c 1 -i 32 -a 1 -x {1.0 3.1 28 ------- null}
h -t 0.614 -s 2 -d 3 -p cbr -e 1000 -c 1 -i 32 -a 1 -x {1.0 3.1 -1 ------- null}
+ -t 0.617857142857143 -s 1 -d 2 -p cbr -e 1000 -c 1 -i 35 -a 1 -x {1.0 3.1 29 ------- null}
- -t 0.617857142857143 -s 1 -d 2 -p cbr -e 1000 -c 1 -i 35 -a 1 -x {1.0 3.1 29 ------- null}
h -t 0.617857142857143 -s 1 -d 2 -p cbr -e 1000 -c 1 -i 35 -a 1 -x {1.0 3.1 -1 ------- null}
r -t 0.620848739495798 -s 2 -d 3 -p cbr -e 1000 -c 1 -i 31 -a 1 -x {1.0 3.1 27 ------- null}
r -t 0.621341848739495 -s 3 -d 2 -p ack -e 40 -c 0 -i 33 -a 0 -x {3.0 0.0 1 ------- null}
+ -t 0.621341848739495 -s 2 -d 0 -p ack -e 40 -c 0 -i 33 -a 0 -x {3.0 0.0 1 ------- null}
- -t 0.621341848739495 -s 2 -d 0 -p ack -e 40 -c 0 -i 33 -a 0 -x {3.0 0.0 1 ------- null}
h -t 0.621341848739495 -s 2 -d 0 -p ack -e 40 -c 0 -i 33 -a 0 -x {3.0 0.0 -1 ------- null}
r -t 0.630941848739496 -s 3 -d 2 -p ack -e 40 -c 0 -i 34 -a 0 -x {3.0 0.0 2 ------- null}
+ -t 0.630941848739496 -s 2 -d 0 -p ack -e 40 -c 0 -i 34 -a 0 -x {3.0 0.0 2 ------- null}
- -t 0.630941848739496 -s 2 -d 0 -p ack -e 40 -c 0 -i 34 -a 0 -x {3.0 0.0 2 ------- null}
h -t 0.630941848739496 -s 2 -d 0 -p ack -e 40 -c 0 -i 34 -a 0 -x {3.0 0.0 -1 ------- null}
r -t 0.631501848739495 -s 2 -d 0 -p ack -e 40 -c 0 -i 33 -a 0 -x {3.0 0.0 1 ------- null}
+ -t 0.631501848739495 -s 0 -d 2 -p tcp -e 1040 -c 0 -i 36 -a 0 -x {0.0 3.0 3 ------- null}
- -t 0.631501848739495 -s 0 -d 2 -p tcp -e 1040 -c 0 -i 36 -a 0 -x {0.0 3.0 3 ------- null}
h -t 0.631501848739495 -s 0 -d 2 -p tcp -e 1040 -c 0 -i 36 -a 0 -x {0.0 3.0 -1 ------- null}
+ -t 0.631501848739495 -s 0 -d 2 -p tcp -e 1040 -c 0 -i 37 -a 0 -x {0.0 3.0 4 ------- null}
r -t 0.631857142857143 -s 1 -d 2 -p cbr -e 1000 -c 1 -i 35 -a 1 -x {1.0 3.1 29 ------- null}
+ -t 0.631857142857143 -s 2 -d 3 -p cbr -e 1000 -c 1 -i 35 -a 1 -x {1.0 3.1 29 ------- null}
- -t 0.631857142857143 -s 2 -d 3 -p cbr -e 1000 -c 1 -i 35 -a 1 -x {1.0 3.1 29 ------- null}
h -t 0.631857142857143 -s 2 -d 3 -p cbr -e 1000 -c 1 -i 35 -a 1 -x {1.0 3.1 -1 ------- null}
- -t 0.635661848739495 -s 0 -d 2 -p tcp -e 1040 -c 0 -i 37 -a 0 -x {0.0 3.0 4 ------- null}
h -t 0.635661848739495 -s 0 -d 2 -p tcp -e 1040 -c 0 -i 37 -a 0 -x {0.0 3.0 -1 ------- null}
+ -t 0.635714285714286 -s 1 -d 2 -p cbr -e 1000 -c 1 -i 38 -a 1 -x {1.0 3.1 30 ------- null}
- -t 0.635714285714286 -s 1 -d 2 -p cbr -e 1000 -c 1 -i 38 -a 1 -x {1.0 3.1 30 ------- null}
h -t 0.635714285714286 -s 1 -d 2 -p cbr -e 1000 -c 1 -i 38 -a 1 -x {1.0 3.1 -1 ------- null}
r -t 0.638705882352941 -s 2 -d 3 -p cbr -e 1000 -c 1 -i 32 -a 1 -x {1.0 3.1 28 ------- null}
r -t 0.641101848739495 -s 2 -d 0 -p ack -e 40 -c 0 -i 34 -a 0 -x {3.0 0.0 2 ------- null}
+ -t 0.641101848739495 -s 0 -d 2 -p tcp -e 1040 -c 0 -i 39 -a 0 -x {0.0 3.0 5 ------- null}
- -t 0.641101848739495 -s 0 -d 2 -p tcp -e 1040 -c 0 -i 39 -a 0 -x {0.0 3.0 5 ------- null}
h -t 0.641101848739495 -s 0 -d 2 -p tcp -e 1040 -c 0 -i 39 -a 0 -x {0.0 3.0 -1 ------- null}
+ -t 0.641101848739495 -s 0 -d 2 -p tcp -e 1040 -c 0 -i 40 -a 0 -x {0.0 3.0 6 ------- null}
- -t 0.645261848739496 -s 0 -d 2 -p tcp -e 1040 -c 0 -i 40 -a 0 -x {0.0 3.0 6 ------- null}
h -t 0.645261848739496 -s 0 -d 2 -p tcp -e 1040 -c 0 -i 40 -a 0 -x {0.0 3.0 -1 ------- null}
r -t 0.645661848739495 -s 0 -d 2 -p tcp -e 1040 -c 0 -i 36 -a 0 -x {0.0 3.0 3 ------- null}
+ -t 0.645661848739495 -s 2 -d 3 -p tcp -e 1040 -c 0 -i 36 -a 0 -x {0.0 3.0 3 ------- null}
- -t 0.645661848739495 -s 2 -d 3 -p tcp -e 1040 -c 0 -i 36 -a 0 -x {0.0 3.0 3 ------- null}
h -t 0.645661848739495 -s 2 -d 3 -p tcp -e 1040 -c 0 -i 36 -a 0 -x {0.0 3.0 -1 ------- null}
r -t 0.649714285714286 -s 1 -d 2 -p cbr -e 1000 -c 1 -i 38 -a 1 -x {1.0 3.1 30 ------- null}
+ -t 0.649714285714286 -s 2 -d 3 -p cbr -e 1000 -c 1 -i 38 -a 1 -x {1.0 3.1 30 ------- null}
r -t 0.649821848739495 -s 0 -d 2 -p tcp -e 1040 -c 0 -i 37 -a 0 -x {0.0 3.0 4 ------- null}
+ -t 0.649821848739495 -s 2 -d 3 -p tcp -e 1040 -c 0 -i 37 -a 0 -x {0.0 3.0 4 ------- null}
- -t 0.650555966386554 -s 2 -d 3 -p cbr -e 1000 -c 1 -i 38 -a 1 -x {1.0 3.1 30 ------- null}
h -t 0.650555966386554 -s 2 -d 3 -p cbr -e 1000 -c 1 -i 38 -a 1 -x {1.0 3.1 -1 ------- null}
+ -t 0.653571428571429 -s 1 -d 2 -p cbr -e 1000 -c 1 -i 41 -a 1 -x {1.0 3.1 31 ------- null}
- -t 0.653571428571429 -s 1 -d 2 -p cbr -e 1000 -c 1 -i 41 -a 1 -x {1.0 3.1 31 ------- null}
h -t 0.653571428571429 -s 1 -d 2 -p cbr -e 1000 -c 1 -i 41 -a 1 -x {1.0 3.1 -1 ------- null}
r -t 0.655261848739495 -s 0 -d 2 -p tcp -e 1040 -c 0 -i 39 -a 0 -x {0.0 3.0 5 ------- null}
+ -t 0.655261848739495 -s 2 -d 3 -p tcp -e 1040 -c 0 -i 39 -a 0 -x {0.0 3.0 5 ------- null}
- -t 0.655261848739495 -s 2 -d 3 -p tcp -e 1040 -c 0 -i 37 -a 0 -x {0.0 3.0 4 ------- null}
h -t 0.655261848739495 -s 2 -d 3 -p tcp -e 1040 -c 0 -i 37 -a 0 -x {0.0 3.0 -1 ------- null}
r -t 0.656563025210084 -s 2 -d 3 -p cbr -e 1000 -c 1 -i 35 -a 1 -x {1.0 3.1 29 ------- null}
r -t 0.659421848739495 -s 0 -d 2 -p tcp -e 1040 -c 0 -i 40 -a 0 -x {0.0 3.0 6 ------- null}
+ -t 0.659421848739495 -s 2 -d 3 -p tcp -e 1040 -c 0 -i 40 -a 0 -x {0.0 3.0 6 ------- null}
- -t 0.660155966386554 -s 2 -d 3 -p tcp -e 1040 -c 0 -i 39 -a 0 -x {0.0 3.0 5 ------- null}
h -t 0.660155966386554 -s 2 -d 3 -p tcp -e 1040 -c 0 -i 39 -a 0 -x {0.0 3.0 -1 ------- null}
- -t 0.665050084033613 -s 2 -d 3 -p tcp -e 1040 -c 0 -i 40 -a 0 -x {0.0 3.0 6 ------- null}