V -t * -v 1.0a5 -a 0
A -t * -n 1 -p 0 -o 0x7fffffff -c 30 -a 1
A -t * -h 1 -m 1073741823 -s 0
c -t * -i 1 -n red
n -t * -a 4 -s 4 -S UP -v circle -c black -i black
n -t * -a 0 -s 0 -S UP -v circle -c black -i black
n -t * -a 5 -s 5 -S UP -v circle -c red -i red
n -t * -a 1 -s 1 -S UP -v circle -c red -i red
n -t * -a 2 -s 2 -S UP -v rectangular -c blue -i blue
n -t * -a 3 -s 3 -S UP -v rectangular -c blue -i blue
l -t * -s 0 -d 2 -S UP -r 500000 -D 0.050000000000000003 -c black -o right-down
l -t * -s 1 -d 2 -S UP -r 500000 -D 0.050000000000000003 -c black -o right-up
l -t * -s 2 -d 3 -S UP -r 500000 -D 0.050000000000000003 -c black -o right
l -t * -s 3 -d 4 -S UP -r 500000 -D 0.050000000000000003 -c black -o right-up
l -t * -s 3 -d 5 -S UP -r 500000 -D 0.050000000000000003 -c black -o right-down
q -t * -s 3 -d 2 -a 0.5
q -t * -s 2 -d 3 -a 0.5
a -t 0 -s 0 -d 4 -n tcp
v -t 0 -e monitor_agent 0 tcp
n -t 0 -s 0 -S DLABEL -l "Sliding-W-sender" -L ""
n -t 0 -s 1 -S DLABEL -l "CBR-sender" -L ""
n -t 0 -s 4 -S DLABEL -l "Sliding-W-receiver" -L ""
n -t 0 -s 5 -S DLABEL -l "CBR-receiver" -L ""
v -t 0 -e sim_annotation 0 1 Sliding Window with packet loss    
+ -t 0.1 -s 0 -d 2 -p tcp -e 40 -c 0 -i 0 -a 0 -x {0.0 4.0 0 ------- null}
- -t 0.1 -s 0 -d 2 -p tcp -e 40 -c 0 -i 0 -a 0 -x {0.0 4.0 0 ------- null}
h -t 0.1 -s 0 -d 2 -p tcp -e 40 -c 0 -i 0 -a 0 -x {0.0 4.0 -1 ------- null}
+ -t 0.1 -s 1 -d 2 -p cbr -e 210 -c 1 -i 1 -a 1 -x {1.0 5.0 0 ------- null}
- -t 0.1 -s 1 -d 2 -p cbr -e 210 -c 1 -i 1 -a 1 -x {1.0 5.0 0 ------- null}
h -t 0.1 -s 1 -d 2 -p cbr -e 210 -c 1 -i 1 -a 1 -x {1.0 5.0 -1 ------- null}
+ -t 0.10375 -s 1 -d 2 -p cbr -e 210 -c 1 -i 2 -a 1 -x {1.0 5.0 1 ------- null}
- -t 0.10375 -s 1 -d 2 -p cbr -e 210 -c 1 -i 2 -a 1 -x {1.0 5.0 1 ------- null}
h -t 0.10375 -s 1 -d 2 -p cbr -e 210 -c 1 -i 2 -a 1 -x {1.0 5.0 -1 ------- null}
+ -t 0.1075 -s 1 -d 2 -p cbr -e 210 -c 1 -i 3 -a 1 -x {1.0 5.0 2 ------- null}
- -t 0.1075 -s 1 -d 2 -p cbr -e 210 -c 1 -i 3 -a 1 -x {1.0 5.0 2 ------- null}
h -t 0.1075 -s 1 -d 2 -p cbr -e 210 -c 1 -i 3 -a 1 -x {1.0 5.0 -1 ------- null}
+ -t 0.11125 -s 1 -d 2 -p cbr -e 210 -c 1 -i 4 -a 1 -x {1.0 5.0 3 ------- null}
- -t 0.11125 -s 1 -d 2 -p cbr -e 210 -c 1 -i 4 -a 1 -x {1.0 5.0 3 ------- null}
h -t 0.11125 -s 1 -d 2 -p cbr -e 210 -c 1 -i 4 -a 1 -x {1.0 5.0 -1 ------- null}
+ -t 0.115 -s 1 -d 2 -p cbr -e 210 -c 1 -i 5 -a 1 -x {1.0 5.0 4 ------- null}
- -t 0.115 -s 1 -d 2 -p cbr -e 210 -c 1 -i 5 -a 1 -x {1.0 5.0 4 ------- null}
h -t 0.115 -s 1 -d 2 -p cbr -e 210 -c 1 -i 5 -a 1 -x {1.0 5.0 -1 ------- null}
+ -t 0.11875 -s 1 -d 2 -p cbr -e 210 -c 1 -i 6 -a 1 -x {1.0 5.0 5 ------- null}
- -t 0.11875 -s 1 -d 2 -p cbr -e 210 -c 1 -i 6 -a 1 -x {1.0 5.0 5 ------- null}
h -t 0.11875 -s 1 -d 2 -p cbr -e 210 -c 1 -i 6 -a 1 -x {1.0 5.0 -1 ------- null}
+ -t 0.1225 -s 1 -d 2 -p cbr -e 210 -c 1 -i 7 -a 1 -x {1.0 5.0 6 ------- null}
- -t 0.1225 -s 1 -d 2 -p cbr -e 210 -c 1 -i 7 -a 1 -x {1.0 5.0 6 ------- null}
h -t 0.1225 -s 1 -d 2 -p cbr -e 210 -c 1 -i 7 -a 1 -x {1.0 5.0 -1 ------- null}
+ -t 0.12625 -s 1 -d 2 -p cbr -e 210 -c 1 -i 8 -a 1 -x {1.0 5.0 7 ------- null}
- -t 0.12625 -s 1 -d 2 -p cbr -e 210 -c 1 -i 8 -a 1 -x {1.0 5.0 7 ------- null}
h -t 0.12625 -s 1 -d 2 -p cbr -e 210 -c 1 -i 8 -a 1 -x {1.0 5.0 -1 ------- null}
+ -t 0.13 -s 1 -d 2 -p cbr -e 210 -c 1 -i 9 -a 1 -x {1.0 5.0 8 ------- null}
- -t 0.13 -s 1 -d 2 -p cbr -e 210 -c 1 -i 9 -a 1 -x {1.0 5.0 8 ------- null}
h -t 0.13 -s 1 -d 2 -p cbr -e 210 -c 1 -i 9 -a 1 -x {1.0 5.0 -1 ------- null}
+ -t 0.13375 -s 1 -d 2 -p cbr -e 210 -c 1 -i 10 -a 1 -x {1.0 5.0 9 ------- null}
- -t 0.13375 -s 1 -d 2 -p cbr -e 210 -c 1 -i 10 -a 1 -x {1.0 5.0 9 ------- null}
h -t 0.13375 -s 1 -d 2 -p cbr -e 210 -c 1 -i 10 -a 1 -x {1.0 5.0 -1 ------- null}
+ -t 0.1375 -s 1 -d 2 -p cbr -e 210 -c 1 -i 11 -a 1 -x {1.0 5.0 10 ------- null}
- -t 0.1375 -s 1 -d 2 -p cbr -e 210 -c 1 -i 11 -a 1 -x {1.0 5.0 10 ------- null}
h -t 0.1375 -s 1 -d 2 -p cbr -e 210 -c 1 -i 11 -a 1 -x {1.0 5.0 -1 ------- null}
+ -t 0.14125 -s 1 -d 2 -p cbr -e 210 -c 1 -i 12 -a 1 -x {1.0 5.0 11 ------- null}
- -t 0.14125 -s 1 -d 2 -p cbr -e 210 -c 1 -i 12 -a 1 -x {1.0 5.0 11 ------- null}
h -t 0.14125 -s 1 -d 2 -p cbr -e 210 -c 1 -i 12 -a 1 -x {1.0 5.0 -1 ------- null}
+ -t 0.145 -s 1 -d 2 -p cbr -e 210 -c 1 -i 13 -a 1 -x {1.0 5.0 12 ------- null}
- -t 0.145 -s 1 -d 2 -p cbr -e 210 -c 1 -i 13 -a 1 -x {1.0 5.0 12 ------- null}
h -t 0.145 -s 1 -d 2 -p cbr -e 210 -c 1 -i 13 -a 1 -x {1.0 5.0 -1 ------- null}
+ -t 0.14875 -s 1 -d 2 -p cbr -e 210 -c 1 -i 14 -a 1 -x {1.0 5.0 13 ------- null}
- -t 0.14875 -s 1 -d 2 -p cbr -e 210 -c 1 -i 14 -a 1 -x {1.0 5.0 13 ------- null}
h -t 0.14875 -s 1 -d 2 -p cbr -e 210 -c 1 -i 14 -a 1 -x {1.0 5.0 -1 ------- null}
r -t 0.15064 -s 0 -d 2 -p tcp -e 40 -c 0 -i 0 -a 0 -x {0.0 4.0 0 ------- null}
+ -t 0.15064 -s 2 -d 3 -p tcp -e 40 -c 0 -i 0 -a 0 -x {0.0 4.0 0 ------- null}
- -t 0.15064 -s 2 -d 3 -p tcp -e 40 -c 0 -i 0 -a 0 -x {0.0 4.0 0 ------- null}
h -t 0.15064 -s 2 -d 3 -p tcp -e 40 -c 0 -i 0 -a 0 -x {0.0 4.0 -1 ------- null}
+ -t 0.1525 -s 1 -d 2 -p cbr -e 210 -c 1 -i 15 -a 1 -x {1.0 5.0 14 ------- null}
- -t 0.1525 -s 1 -d 2 -p cbr -e 210 -c 1 -i 15 -a 1 -x {1.0 5.0 14 ------- null}
h -t 0.1525 -s 1 -d 2 -p cbr -e 210 -c 1 -i 15 -a 1 -x {1.0 5.0 -1 ------- null}
r -t 0.15336 -s 1 -d 2 -p cbr -e 210 -c 1 -i 1 -a 1 -x {1.0 5.0 0 ------- null}
+ -t 0.15336 -s 2 -d 3 -p cbr -e 210 -c 1 -i 1 -a 1 -x {1.0 5.0 0 ------- null}
- -t 0.15336 -s 2 -d 3 -p cbr -e 210 -c 1 -i 1 -a 1 -x {1.0 5.0 0 ------- null}
h -t 0.15336 -s 2 -d 3 -p cbr -e 210 -c 1 -i 1 -a 1 -x {1.0 5.0 -1 ------- null}
+ -t 0.15625 -s 1 -d 2 -p cbr -e 210 -c 1 -i 16 -a 1 -x {1.0 5.0 15 ------- null}
- -t 0.15625 -s 1 -d 2 -p cbr -e 210 -c 1 -i 16 -a 1 -x {1.0 5.0 15 ------- null}
h -t 0.15625 -s 1 -d 2 -p cbr -e 210 -c 1 -i 16 -a 1 -x {1.0 5.0 -1 ------- null}
r -t 0.15711 -s 1 -d 2 -p cbr -e 210 -c 1 -i 2 -a 1 -x {1.0 5.0 1 ------- null}
+ -t 0.15711 -s 2 -d 3 -p cbr -e 210 -c 1 -i 2 -a 1 -x {1.0 5.0 1 ------- null}
- -t 0.15711 -s 2 -d 3 -p cbr -e 210 -c 1 -i 2 -a 1 -x {1.0 5.0 1 ------- null}
h -t 0.15711 -s 2 -d 3 -p cbr -e 210 -c 1 -i 2 -a 1 -x {1.0 5.0 -1 ------- null}
+ -t 0.16 -s 1 -d 2 -p cbr -e 210 -c 1 -i 17 -a 1 -x {1.0 5.0 16 ------- null}
- -t 0.16 -s 1 -d 2 -p cbr -e 210 -c 1 -i 17 -a 1 -x {1.0 5.0 16 ------- null}
h -t 0.16 -s 1 -d 2 -p cbr -e 210 -c 1 -i 17 -a 1 -x {1.0 5.0 -1 ------- null}
r -t 0.16086 -s 1 -d 2 -p cbr -e 210 -c 1 -i 3 -a 1 -x {1.0 5.0 2 ------- null}
+ -t 0.16086 -s 2 -d 3 -p cbr -e 210 -c 1 -i 3 -a 1 -x {1.0 5.0 2 ------- null}
- -t 0.16086 -s 2 -d 3 -p cbr -e 210 -c 1 -i 3 -a 1 -x {1.0 5.0 2 ------- null}
h -t 0.16086 -s 2 -d 3 -p cbr -e 210 -c 1 -i 3 -a 1 -x {1.0 5.0 -1 ------- null}
+ -t 0.16375 -s 1 -d 2 -p cbr -e 210 -c 1 -i 18 -a 1 -x {1.0 5.0 17 ------- null}
- -t 0.16375 -s 1 -d 2 -p cbr -e 210 -c 1 -i 18 -a 1 -x {1.0 5.0 17 ------- null}
h -t 0.16375 -s 1 -d 2 -p cbr -e 210 -c 1 -i 18 -a 1 -x {1.0 5.0 -1 ------- null}
r -t 0.16461 -s 1 -d 2 -p cbr -e 210 -c 1 -i 4 -a 1 -x {1.0 5.0 3 ------- null}
+ -t 0.16461 -s 2 -d 3 -p cbr -e 210 -c 1 -i 4 -a 1 -x {1.0 5.0 3 ------- null}
- -t 0.16461 -s 2 -d 3 -p cbr -e 210 -c 1 -i 4 -a 1 -x {1.0 5.0 3 ------- null}
h -t 0.16461 -s 2 -d 3 -p cbr -e 210 -c 1 -i 4 -a 1 -x {1.0 5.0 -1 ------- null}
+ -t 0.1675 -s 1 -d 2 -p cbr -e 210 -c 1 -i 19 -a 1 -x {1.0 5.0 18 ------- null}
- -t 0.1675 -s 1 -d 2 -p cbr -e 210 -c 1 -i 19 -a 1 -x {1.0 5.0 18 ------- null}
h -t 0.1675 -s 1 -d 2 -p cbr -e 210 -c 1 -i 19 -a 1 -x {1.0 5.0 -1 ------- null}
r -t 0.16836 -s 1 -d 2 -p cbr -e 210 -c 1 -i 5 -a 1 -x {1.0 5.0 4 ------- null}
+ -t 0.16836 -s 2 -d 3 -p cbr -e 210 -c 1 -i 5 -a 1 -x {1.0 5.0 4 ------- null}
- -t 0.16836 -s 2 -d 3 -p cbr -e 210 -c 1 -i 5 -a 1 -x {1.0 5.0 4 ------- null}
h -t 0.16836 -s 2 -d 3 -p cbr -e 210 -c 1 -i 5 -a 1 -x {1.0 5.0 -1 ------- null}
+ -t 0.17125 -s 1 -d 2 -p cbr -e 210 -c 1 -i 20 -a 1 -x {1.0 5.0 19 ------- null}
- -t 0.17125 -s 1 -d 2 -p cbr -e 210 -c 1 -i 20 -a 1 -x {1.0 5.0 19 ------- null}
h -t 0.17125 -s 1 -d 2 -p cbr -e 210 -c 1 -i 20 -a 1 -x {1.0 5.0 -1 ------- null}
r -t 0.17211 -s 1 -d 2 -p cbr -e 210 -c 1 -i 6 -a 1 -x {1.0 5.0 5 ------- null}
+ -t 0.17211 -s 2 -d 3 -p cbr -e 210 -c 1 -i 6 -a 1 -x {1.0 5.0 5 ------- null}
- -t 0.17211 -s 2 -d 3 -p cbr -e 210 -c 1 -i 6 -a 1 -x {1.0 5.0 5 ------- null}
h -t 0.17211 -s 2 -d 3 -p cbr -e 210 -c 1 -i 6 -a 1 -x {1.0 5.0 -1 ------- null}
+ -t 0.175 -s 1 -d 2 -p cbr -e 210 -c 1 -i 21 -a 1 -x {1.0 5.0 20 ------- null}
- -t 0.175 -s 1 -d 2 -p cbr -e 210 -c 1 -i 21 -a 1 -x {1.0 5.0 20 ------- null}
h -t 0.175 -s 1 -d 2 -p cbr -e 210 -c 1 -i 21 -a 1 -x {1.0 5.0 -1 ------- null}
r -t 0.17586 -s 1 -d 2 -p cbr -e 210 -c 1 -i 7 -a 1 -x {1.0 5.0 6 ------- null}
+ -t 0.17586 -s 2 -d 3 -p cbr -e 210 -c 1 -i 7 -a 1 -x {1.0 5.0 6 ------- null}
- -t 0.17586 -s 2 -d 3 -p cbr -e 210 -c 1 -i 7 -a 1 -x {1.0 5.0 6 ------- null}
h -t 0.17586 -s 2 -d 3 -p cbr -e 210 -c 1 -i 7 -a 1 -x {1.0 5.0 -1 ------- null}
+ -t 0.17875 -s 1 -d 2 -p cbr -e 210 -c 1 -i 22 -a 1 -x {1.0 5.0 21 ------- null}
- -t 0.17875 -s 1 -d 2 -p cbr -e 210 -c 1 -i 22 -a 1 -x {1.0 5.0 21 ------- null}
h -t 0.17875 -s 1 -d 2 -p cbr -e 210 -c 1 -i 22 -a 1 -x {1.0 5.0 -1 ------- null}
r -t 0.17961 -s 1 -d 2 -p cbr -e 210 -c 1 -i 8 -a 1 -x {1.0 5.0 7 ------- null}
+ -t 0.17961 -s 2 -d 3 -p cbr -e 210 -c 1 -i 8 -a 1 -x {1.0 5.0 7 ------- null}
- -t 0.17961 -s 2 -d 3 -p cbr -e 210 -c 1 -i 8 -a 1 -x {1.0 5.0 7 ------- null}
h -t 0.17961 -s 2 -d 3 -p cbr -e 210 -c 1 -i 8 -a 1 -x {1.0 5.0 -1 ------- null}
+ -t 0.1825 -s 1 -d 2 -p cbr -e 210 -c 1 -i 23 -a 1 -x {1.0 5.0 22 ------- null}
- -t 0.1825 -s 1 -d 2 -p cbr -e 210 -c 1 -i 23 -a 1 -x {1.0 5.0 22 ------- null}
h -t 0.1825 -s 1 -d 2 -p cbr -e 210 -c 1 -i 23 -a 1 -x {1.0 5.0 -1 ------- null}
r -t 0.18336 -s 1 -d 2 -p cbr -e 210 -c 1 -i 9 -a 1 -x {1.0 5.0 8 ------- null}
+ -t 0.18336 -s 2 -d 3 -p cbr -e 210 -c 1 -i 9 -a 1 -x {1.0 5.0 8 ------- null}
- -t 0.18336 -s 2 -d 3 -p cbr -e 210 -c 1 -i 9 -a 1 -x {1.0 5.0 8 ------- null}
h -t 0.18336 -s 2 -d 3 -p cbr -e 210 -c 1 -i 9 -a 1 -x {1.0 5.0 -1 ------- null}
+ -t 0.18625 -s 1 -d 2 -p cbr -e 210 -c 1 -i 24 -a 1 -x {1.0 5.0 23 ------- null}
- -t 0.18625 -s 1 -d 2 -p cbr -e 210 -c 1 -i 24 -a 1 -x {1.0 5.0 23 ------- null}
h -t 0.18625 -s 1 -d 2 -p cbr -e 210 -c 1 -i 24 -a 1 -x {1.0 5.0 -1 ------- null}
r -t 0.18711 -s 1 -d 2 -p cbr -e 210 -c 1 -i 10 -a 1 -x {1.0 5.0 9 ------- null}
+ -t 0.18711 -s 2 -d 3 -p cbr -e 210 -c 1 -i 10 -a 1 -x {1.0 5.0 9 ------- null}
- -t 0.18711 -s 2 -d 3 -p cbr -e 210 -c 1 -i 10 -a 1 -x {1.0 5.0 9 ------- null}
h -t 0.18711 -s 2 -d 3 -p cbr -e 210 -c 1 -i 10 -a 1 -x {1.0 5.0 -1 ------- null}
+ -t 0.19 -s 1 -d 2 -p cbr -e 210 -c 1 -i 25 -a 1 -x {1.0 5.0 24 ------- null}
- -t 0.19 -s 1 -d 2 -p cbr -e 210 -c 1 -i 25 -a 1 -x {1.0 5.0 24 ------- null}
h -t 0.19 -s 1 -d 2 -p cbr -e 210 -c 1 -i 25 -a 1 -x {1.0 5.0 -1 ------- null}
r -t 0.19086 -s 1 -d 2 -p cbr -e 210 -c 1 -i 11 -a 1 -x {1.0 5.0 10 ------- null}
+ -t 0.19086 -s 2 -d 3 -p cbr -e 210 -c 1 -i 11 -a 1 -x {1.0 5.0 10 ------- null}
- -t 0.19086 -s 2 -d 3 -p cbr -e 210 -c 1 -i 11 -a 1 -x {1.0 5.0 10 ------- null}
h -t 0.19086 -s 2 -d 3 -p cbr -e 210 -c 1 -i 11 -a 1 -x {1.0 5.0 -1 ------- null}
+ -t 0.19375 -s 1 -d 2 -p cbr -e 210 -c 1 -i 26 -a 1 -x {1.0 5.0 25 ------- null}
- -t 0.19375 -s 1 -d 2 -p cbr -e 210 -c 1 -i 26 -a 1 -x {1.0 5.0 25 ------- null}
h -t 0.19375 -s 1 -d 2 -p cbr -e 210 -c 1 -i 26 -a 1 -x {1.0 5.0 -1 ------- null}
r -t 0.19461 -s 1 -d 2 -p cbr -e 210 -c 1 -i 12 -a 1 -x {1.0 5.0 11 ------- null}
+ -t 0.19461 -s 2 -d 3 -p cbr -e 210 -c 1 -i 12 -a 1 -x {1.0 5.0 11 ------- null}
- -t 0.19461 -s 2 -d 3 -p cbr -e 210 -c 1 -i 12 -a 1 -x {1.0 5.0 11 ------- null}
h -t 0.19461 -s 2 -d 3 -p cbr -e 210 -c 1 -i 12 -a 1 -x {1.0 5.0 -1 ------- null}
+ -t 0.1975 -s 1 -d 2 -p cbr -e 210 -c 1 -i 27 -a 1 -x {1.0 5.0 26 ------- null}
- -t 0.1975 -s 1 -d 2 -p cbr -e 210 -c 1 -i 27 -a 1 -x {1.0 5.0 26 ------- null}
h -t 0.1975 -s 1 -d 2 -p cbr -e 210 -c 1 -i 27 -a 1 -x {1.0 5.0 -1 ------- null}
r -t 0.19836 -s 1 -d 2 -p cbr -e 210 -c 1 -i 13 -a 1 -x {1.0 5.0 12 ------- null}
+ -t 0.19836 -s 2 -d 3 -p cbr -e 210 -c 1 -i 13 -a 1 -x {1.0 5.0 12 ------- null}
- -t 0.19836 -s 2 -d 3 -p cbr -e 210 -c 1 -i 13 -a 1 -x {1.0 5.0 12 ------- null}
h -t 0.19836 -s 2 -d 3 -p cbr -e 210 -c 1 -i 13 -a 1 -x {1.0 5.0 -1 ------- null}
+ -t 0.20125 -s 1 -d 2 -p cbr -e 210 -c 1 -i 28 -a 1 -x {1.0 5.0 27 ------- null}
- -t 0.20125 -s 1 -d 2 -p cbr -e 210 -c 1 -i 28 -a 1 -x {1.0 5.0 27 ------- null}
h -t 0.20125 -s 1 -d 2 -p cbr -e 210 -c 1 -i 28 -a 1 -x {1.0 5.0 -1 ------- null}
r -t 0.20128 -s 2 -d 3 -p tcp -e 40 -c 0 -i 0 -a 0 -x {0.0 4.0 0 ------- null}
+ -t 0.20128 -s 3 -d 4 -p tcp -e 40 -c 0 -i 0 -a 0 -x {0.0 4.0 0 ------- null}
- -t 0.20128 -s 3 -d 4 -p tcp -e 40 -c 0 -i 0 -a 0 -x {0.0 4.0 0 ------- null}
h -t 0.20128 -s 3 -d 4 -p tcp -e 40 -c 0 -i 0 -a 0 -x {0.0 4.0 -1 ------- null}
r -t 0.20211 -s 1 -d 2 -p cbr -e 210 -c 1 -i 14 -a 1 -x {1.0 5.0 13 ------- null}
+ -t 0.20211 -s 2 -d 3 -p cbr -e 210 -c 1 -i 14 -a 1 -x {1.0 5.0 13 ------- null}
- -t 0.20211 -s 2 -d 3 -p cbr -e 210 -c 1 -i 14 -a 1 -x {1.0 5.0 13 ------- null}
h -t 0.20211 -s 2 -d 3 -p cbr -e 210 -c 1 -i 14 -a 1 -x {1.0 5.0 -1 ------- null}
+ -t 0.205 -s 1 -d 2 -p cbr -e 210 -c 1 -i 29 -a 1 -x {1.0 5.0 28 ------- null}
- -t 0.205 -s 1 -d 2 -p cbr -e 210 -c 1 -i 29 -a 1 -x {1.0 5.0 28 ------- null}
h -t 0.205 -s 1 -d 2 -p cbr -e 210 -c 1 -i 29 -a 1 -x {1.0 5.0 -1 ------- null}
r -t 0.20586 -s 1 -d 2 -p cbr -e 210 -c 1 -i 15 -a 1 -x {1.0 5.0 14 ------- null}
+ -t 0.20586 -s 2 -d 3 -p cbr -e 210 -c 1 -i 15 -a 1 -x {1.0 5.0 14 ------- null}
- -t 0.20586 -s 2 -d 3 -p cbr -e 210 -c 1 -i 15 -a 1 -x {1.0 5.0 14 ------- null}
h -t 0.20586 -s 2 -d 3 -p cbr -e 210 -c 1 -i 15 -a 1 -x {1.0 5.0 -1 ------- null}
r -t 0.20672 -s 2 -d 3 -p cbr -e 210 -c 1 -i 1 -a 1 -x {1.0 5.0 0 ------- null}
+ -t 0.20672 -s 3 -d 5 -p cbr -e 210 -c 1 -i 1 -a 1 -x {1.0 5.0 0 ------- null}
- -t 0.20672 -s 3 -d 5 -p cbr -e 210 -c 1 -i 1 -a 1 -x {1.0 5.0 0 ------- null}
h -t 0.20672 -s 3 -d 5 -p cbr -e 210 -c 1 -i 1 -a 1 -x {1.0 5.0 -1 ------- null}
+ -t 0.20875 -s 1 -d 2 -p cbr -e 210 -c 1 -i 30 -a 1 -x {1.0 5.0 29 ------- null}
- -t 0.20875 -s 1 -d 2 -p cbr -e 210 -c 1 -i 30 -a 1 -x {1.0 5.0 29 ------- null}
h -t 0.20875 -s 1 -d 2 -p cbr -e 210 -c 1 -i 30 -a 1 -x {1.0 5.0 -1 ------- null}
r -t 0.20961 -s 1 -d 2 -p cbr -e 210 -c 1 -i 16 -a 1 -x {1.0 5.0 15 ------- null}
+ -t 0.20961 -s 2 -d 3 -p cbr -e 210 -c 1 -i 16 -a 1 -x {1.0 5.0 15 ------- null}
- -t 0.20961 -s 2 -d 3 -p cbr -e 210 -c 1 -i 16 -a 1 -x {1.0 5.0 15 ------- null}
h -t 0.20961 -s 2 -d 3 -p cbr -e 210 -c 1 -i 16 -a 1 -x {1.0 5.0 -1 ------- null}
r -t 0.21047 -s 2 -d 3 -p cbr -e 210 -c 1 -i 2 -a 1 -x {1.0 5.0 1 ------- null}
+ -t 0.21047 -s 3 -d 5 -p cbr -e 210 -c 1 -i 2 -a 1 -x {1.0 5.0 1 ------- null}
- -t 0.21047 -s 3 -d 5 -p cbr -e 210 -c 1 -i 2 -a 1 -x {1.0 5.0 1 ------- null}
h -t 0.21047 -s 3 -d 5 -p cbr -e 210 -c 1 -i 2 -a 1 -x {1.0 5.0 -1 ------- null}
+ -t 0.2125 -s 1 -d 2 -p cbr -e 210 -c 1 -i 31 -a 1 -x {1.0 5.0 30 ------- null}
- -t 0.2125 -s 1 -d 2 -p cbr -e 210 -c 1 -i 31 -a 1 -x {1.0 5.0 30 ------- null}
h -t 0.2125 -s 1 -d 2 -p cbr -e 210 -c 1 -i 31 -a 1 -x {1.0 5.0 -1 ------- null}
r -t 0.21336 -s 1 -d 2 -p cbr -e 210 -c 1 -i 17 -a 1 -x {1.0 5.0 16 ------- null}
+ -t 0.21336 -s 2 -d 3 -p cbr -e 210 -c 1 -i 17 -a 1 -x {1.0 5.0 16 ------- null}
- -t 0.21336 -s 2 -d 3 -p cbr -e 210 -c 1 -i 17 -a 1 -x {1.0 5.0 16 ------- null}
h -t 0.21336 -s 2 -d 3 -p cbr -e 210 -c 1 -i 17 -a 1 -x {1.0 5.0 -1 ------- null}
r -t 0.21422 -s 2 -d 3 -p cbr -e 210 -c 1 -i 3 -a 1 -x {1.0 5.0 2 ------- null}
+ -t 0.21422 -s 3 -d 5 -p cbr -e 210 -c 1 -i 3 -a 1 -x {1.0 5.0 2 ------- null}
- -t 0.21422 -s 3 -d 5 -p cbr -e 210 -c 1 -i 3 -a 1 -x {1.0 5.0 2 ------- null}
h -t 0.21422 -s 3 -d 5 -p cbr -e 210 -c 1 -i 3 -a 1 -x {1.0 5.0 -1 ------- null}
+ -t 0.21625 -s 1 -d 2 -p cbr -e 210 -c 1 -i 32 -a 1 -x {1.0 5.0 31 ------- null}
- -t 0.21625 -s 1 -d 2 -p cbr -e 210 -c 1 -i 32 -a 1 -x {1.0 5.0 31 ------- null}
h -t 0.21625 -s 1 -d 2 -p cbr -e 210 -c 1 -i 32 -a 1 -x {1.0 5.0 -1 ------- null}
r -t 0.21711 -s 1 -d 2 -p cbr -e 210 -c 1 -i 18 -a 1 -x {1.0 5.0 17 ------- null}
+ -t 0.21711 -s 2 -d 3 -p cbr -e 210 -c 1 -i 18 -a 1 -x {1.0 5.0 17 ------- null}
- -t 0.21711 -s 2 -d 3 -p cbr -e 210 -c 1 -i 18 -a 1 -x {1.0 5.0 17 ------- null}
h -t 0.21711 -s 2 -d 3 -p cbr -e 210 -c 1 -i 18 -a 1 -x {1.0 5.0 -1 ------- null}
r -t 0.21797 -s 2 -d 3 -p cbr -e 210 -c 1 -i 4 -a 1 -x {1.0 5.0 3 ------- null}
+ -t 0.21797 -s 3 -d 5 -p cbr -e 210 -c 1 -i 4 -a 1 -x {1.0 5.0 3 ------- null}
- -t 0.21797 -s 3 -d 5 -p cbr -e 210 -c 1 -i 4 -a 1 -x {1.0 5.0 3 ------- null}
h -t 0.21797 -s 3 -d 5 -p cbr -e 210 -c 1 -i 4 -a 1 -x {1.0 5.0 -1 ------- null}
+ -t 0.22 -s 1 -d 2 -p cbr -e 210 -c 1 -i 33 -a 1 -x {1.0 5.0 32 ------- null}
- -t 0.22 -s 1 -d 2 -p cbr -e 210 -c 1 -i 33 -a 1 -x {1.0 5.0 32 ------- null}
h -t 0.22 -s 1 -d 2 -p cbr -e 210 -c 1 -i 33 -a 1 -x {1.0 5.0 -1 ------- null}
r -t 0.22086 -s 1 -d 2 -p cbr -e 210 -c 1 -i 19 -a 1 -x {1.0 5.0 18 ------- null}
+ -t 0.22086 -s 2 -d 3 -p cbr -e 210 -c 1 -i 19 -a 1 -x {1.0 5.0 18 ------- null}
- -t 0.22086 -s 2 -d 3 -p cbr -e 210 -c 1 -i 19 -a 1 -x {1.0 5.0 18 ------- null}
h -t 0.22086 -s 2 -d 3 -p cbr -e 210 -c 1 -i 19 -a 1 -x {1.0 5.0 -1 ------- null}
r -t 0.22172 -s 2 -d 3 -p cbr -e 210 -c 1 -i 5 -a 1 -x {1.0 5.0 4 ------- null}
+ -t 0.22172 -s 3 -d 5 -p cbr -e 210 -c 1 -i 5 -a 1 -x {1.0 5.0 4 ------- null}
- -t 0.22172 -s 3 -d 5 -p cbr -e 210 -c 1 -i 5 -a 1 -x {1.0 5.0 4 ------- null}
h -t 0.22172 -s 3 -d 5 -p cbr -e 210 -c 1 -i 5 -a 1 -x {1.0 5.0 -1 ------- null}
+ -t 0.22375 -s 1 -d 2 -p cbr -e 210 -c 1 -i 34 -a 1 -x {1.0 5.0 33 ------- null}
- -t 0.22375 -s 1 -d 2 -p cbr -e 210 -c 1 -i 34 -a 1 -x {1.0 5.0 33 ------- null}
h -t 0.22375 -s 1 -d 2 -p cbr -e 210 -c 1 -i 34 -a 1 -x {1.0 5.0 -1 ------- null}
r -t 0.22461 -s 1 -d 2 -p cbr -e 210 -c 1 -i 20 -a 1 -x {1.0 5.0 19 ------- null}
+ -t 0.22461 -s 2 -d 3 -p cbr -e 210 -c 1 -i 20 -a 1 -x {1.0 5.0 19 ------- null}
- -t 0.22461 -s 2 -d 3 -p cbr -e 210 -c 1 -i 20 -a 1 -x {1.0 5.0 19 ------- null}
h -t 0.22461 -s 2 -d 3 -p cbr -e 210 -c 1 -i 20 -a 1 -x {1.0 5.0 -1 ------- null}
r -t 0.22547 -s 2 -d 3 -p cbr -e 210 -c 1 -i 6 -a 1 -x {1.0 5.0 5 ------- null}
+ -t 0.22547 -s 3 -d 5 -p cbr -e 210 -c 1 -i 6 -a 1 -x {1.0 5.0 5 ------- null}
- -t 0.22547 -s 3 -d 5 -p cbr -e 210 -c 1 -i 6 -a 1 -x {1.0 5.0 5 ------- null}
h -t 0.22547 -s 3 -d 5 -p cbr -e 210 -c 1 -i 6 -a 1 -x {1.0 5.0 -1 ------- null}
+ -t 0.2275 -s 1 -d 2 -p cbr -e 210 -c 1 -i 35 -a 1 -x {1.0 5.0 34 ------- null}
- -t 0.2275 -s 1 -d 2 -p cbr -e 210 -c 1 -i 35 -a 1 -x {1.0 5.0 34 ------- null}
h -t 0.2275 -s 1 -d 2 -p cbr -e 210 -c 1 -i 35 -a 1 -x {1.0 5.0 -1 ------- null}
r -t 0.22836 -s 1 -d 2 -p cbr -e 210 -c 1 -i 21 -a 1 -x {1.0 5.0 20 ------- null}
+ -t 0.22836 -s 2 -d 3 -p cbr -e 210 -c 1 -i 21 -a 1 -x {1.0 5.0 20 ------- null}
- -t 0.22836 -s 2 -d 3 -p cbr -e 210 -c 1 -i 21 -a 1 -x {1.0 5.0 20 ------- null}
h -t 0.22836 -s 2 -d 3 -p cbr -e 210 -c 1 -i 21 -a 1 -x {1.0 5.0 -1 ------- null}
r -t 0.22922 -s 2 -d 3 -p cbr -e 210 -c 1 -i 7 -a 1 -x {1.0 5.0 6 ------- null}
+ -t 0.22922 -s 3 -d 5 -p cbr -e 210 -c 1 -i 7 -a 1 -x {1.0 5.0 6 ------- null}
- -t 0.22922 -s 3 -d 5 -p cbr -e 210 -c 1 -i 7 -a 1 -x {1.0 5.0 6 ------- null}
h -t 0.22922 -s 3 -d 5 -p cbr -e 210 -c 1 -i 7 -a 1 -x {1.0 5.0 -1 ------- null}
+ -t 0.23125 -s 1 -d 2 -p cbr -e 210 -c 1 -i 36 -a 1 -x {1.0 5.0 35 ------- null}
- -t 0.23125 -s 1 -d 2 -p cbr -e 210 -c 1 -i 36 -a 1 -x {1.0 5.0 35 ------- null}
h -t 0.23125 -s 1 -d 2 -p cbr -e 210 -c 1 -i 36 -a 1 -x {1.0 5.0 -1 ------- null}
r -t 0.23211 -s 1 -d 2 -p cbr -e 210 -c 1 -i 22 -a 1 -x {1.0 5.0 21 ------- null}
+ -t 0.23211 -s 2 -d 3 -p cbr -e 210 -c 1 -i 22 -a 1 -x {1.0 5.0 21 ------- null}
- -t 0.23211 -s 2 -d 3 -p cbr -e 210 -c 1 -i 22 -a 1 -x {1.0 5.0 21 ------- null}
h -t 0.23211 -s 2 -d 3 -p cbr -e 210 -c 1 -i 22 -a 1 -x {1.0 5.0 -1 ------- null}
r -t 0.23297 -s 2 -d 3 -p cbr -e 210 -c 1 -i 8 -a 1 -x {1.0 5.0 7 ------- null}
+ -t 0.23297 -s 3 -d 5 -p cbr -e 210 -c 1 -i 8 -a 1 -x {1.0 5.0 7 ------- null}
- -t 0.23297 -s 3 -d 5 -p cbr -e 210 -c 1 -i 8 -a 1 -x {1.0 5.0 7 ------- null}
h -t 0.23297 -s 3 -d 5 -p cbr -e 210 -c 1 -i 8 -a 1 -x {1.0 5.0 -1 ------- null}
+ -t 0.235 -s 1 -d 2 -p cbr -e 210 -c 1 -i 37 -a 1 -x {1.0 5.0 36 ------- null}
- -t 0.235 -s 1 -d 2 -p cbr -e 210 -c 1 -i 37 -a 1 -x {1.0 5.0 36 ------- null}
h -t 0.235 -s 1 -d 2 -p cbr -e 210 -c 1 -i 37 -a 1 -x {1.0 5.0 -1 ------- null}
r -t 0.23586 -s 1 -d 2 -p cbr -e 210 -c 1 -i 23 -a 1 -x {1.0 5.0 22 ------- null}
+ -t 0.23586 -s 2 -d 3 -p cbr -e 210 -c 1 -i 23 -a 1 -x {1.0 5.0 22 ------- null}
- -t 0.23586 -s 2 -d 3 -p cbr -e 210 -c 1 -i 23 -a 1 -x {1.0 5.0 22 ------- null}
h -t 0.23586 -s 2 -d 3 -p cbr -e 210 -c 1 -i 23 -a 1 -x {1.0 5.0 -1 ------- null}
r -t 0.23672 -s 2 -d 3 -p cbr -e 210 -c 1 -i 9 -a 1 -x {1.0 5.0 8 ------- null}
+ -t 0.23672 -s 3 -d 5 -p cbr -e 210 -c 1 -i 9 -a 1 -x {1.0 5.0 8 ------- null}
- -t 0.23672 -s 3 -d 5 -p cbr -e 210 -c 1 -i 9 -a 1 -x {1.0 5.0 8 ------- null}
h -t 0.23672 -s 3 -d 5 -p cbr -e 210 -c 1 -i 9 -a 1 -x {1.0 5.0 -1 ------- null}
+ -t 0.23875 -s 1 -d 2 -p cbr -e 210 -c 1 -i 38 -a 1 -x {1.0 5.0 37 ------- null}
- -t 0.23875 -s 1 -d 2 -p cbr -e 210 -c 1 -i 38 -a 1 -x {1.0 5.0 37 ------- null}
h -t 0.23875 -s 1 -d 2 -p cbr -e 210 -c 1 -i 38 -a 1 -x {1.0 5.0 -1 ------- null}
r -t 0.23961 -s 1 -d 2 -p cbr -e 210 -c 1 -i 24 -a 1 -x {1.0 5.0 23 ------- null}
+ -t 0.23961 -s 2 -d 3 -p cbr -e 210 -c 1 -i 24 -a 1 -x {1.0 5.0 23 ------- null}
- -t 0.23961 -s 2 -d 3 -p cbr -e 210 -c 1 -i 24 -a 1 -x {1.0 5.0 23 ------- null}
h -t 0.23961 -s 2 -d 3 -p cbr -e 210 -c 1 -i 24 -a 1 -x {1.0 5.0 -1 ------- null}
r -t 0.24047 -s 2 -d 3 -p cbr -e 210 -c 1 -i 10 -a 1 -x {1.0 5.0 9 ------- null}
+ -t 0.24047 -s 3 -d 5 -p cbr -e 210 -c 1 -i 10 -a 1 -x {1.0 5.0 9 ------- null}
- -t 0.24047 -s 3 -d 5 -p cbr -e 210 -c 1 -i 10 -a 1 -x {1.0 5.0 9 ------- null}
h -t 0.24047 -s 3 -d 5 -p cbr -e 210 -c 1 -i 10 -a 1 -x {1.0 5.0 -1 ------- null}
+ -t 0.2425 -s 1 -d 2 -p cbr -e 210 -c 1 -i 39 -a 1 -x {1.0 5.0 38 ------- null}
- -t 0.2425 -s 1 -d 2 -p cbr -e 210 -c 1 -i 39 -a 1 -x {1.0 5.0 38 ------- null}
h -t 0.2425 -s 1 -d 2 -p cbr -e 210 -c 1 -i 39 -a 1 -x {1.0 5.0 -1 ------- null}
r -t 0.24336 -s 1 -d 2 -p cbr -e 210 -c 1 -i 25 -a 1 -x {1.0 5.0 24 ------- null}
+ -t 0.24336 -s 2 -d 3 -p cbr -e 210 -c 1 -i 25 -a 1 -x {1.0 5.0 24 ------- null}
- -t 0.24336 -s 2 -d 3 -p cbr -e 210 -c 1 -i 25 -a 1 -x {1.0 5.0 24 ------- null}
h -t 0.24336 -s 2 -d 3 -p cbr -e 210 -c 1 -i 25 -a 1 -x {1.0 5.0 -1 ------- null}
r -t 0.24422 -s 2 -d 3 -p cbr -e 210 -c 1 -i 11 -a 1 -x {1.0 5.0 10 ------- null}
+ -t 0.24422 -s 3 -d 5 -p cbr -e 210 -c 1 -i 11 -a 1 -x {1.0 5.0 10 ------- null}
- -t 0.24422 -s 3 -d 5 -p cbr -e 210 -c 1 -i 11 -a 1 -x {1.0 5.0 10 ------- null}
h -t 0.24422 -s 3 -d 5 -p cbr -e 210 -c 1 -i 11 -a 1 -x {1.0 5.0 -1 ------- null}
+ -t 0.24625 -s 1 -d 2 -p cbr -e 210 -c 1 -i 40 -a 1 -x {1.0 5.0 39 ------- null}
- -t 0.24625 -s 1 -d 2 -p cbr -e 210 -c 1 -i 40 -a 1 -x {1.0 5.0 39 ------- null}
h -t 0.24625 -s 1 -d 2 -p cbr -e 210 -c 1 -i 40 -a 1 -x {1.0 5.0 -1 ------- null}
r -t 0.24711 -s 1 -d 2 -p cbr -e 210 -c 1 -i 26 -a 1 -x {1.0 5.0 25 ------- null}
+ -t 0.24711 -s 2 -d 3 -p cbr -e 210 -c 1 -i 26 -a 1 -x {1.0 5.0 25 ------- null}
- -t 0.24711 -s 2 -d 3 -p cbr -e 210 -c 1 -i 26 -a 1 -x {1.0 5.0 25 ------- null}
h -t 0.24711 -s 2 -d 3 -p cbr -e 210 -c 1 -i 26 -a 1 -x {1.0 5.0 -1 ------- null}
r -t 0.24797 -s 2 -d 3 -p cbr -e 210 -c 1 -i 12 -a 1 -x {1.0 5.0 11 ------- null}
+ -t 0.24797 -s 3 -d 5 -p cbr -e 210 -c 1 -i 12 -a 1 -x {1.0 5.0 11 ------- null}
- -t 0.24797 -s 3 -d 5 -p cbr -e 210 -c 1 -i 12 -a 1 -x {1.0 5.0 11 ------- null}
h -t 0.24797 -s 3 -d 5 -p cbr -e 210 -c 1 -i 12 -a 1 -x {1.0 5.0 -1 ------- null}
+ -t 0.25 -s 1 -d 2 -p cbr -e 210 -c 1 -i 41 -a 1 -x {1.0 5.0 40 ------- null}
- -t 0.25 -s 1 -d 2 -p cbr -e 210 -c 1 -i 41 -a 1 -x {1.0 5.0 40 ------- null}
h -t 0.25 -s 1 -d 2 -p cbr -e 210 -c 1 -i 41 -a 1 -x {1.0 5.0 -1 ------- null}
r -t 0.25086 -s 1 -d 2 -p cbr -e 210 -c 1 -i 27 -a 1 -x {1.0 5.0 26 ------- null}
+ -t 0.25086 -s 2 -d 3 -p cbr -e 210 -c 1 -i 27 -a 1 -x {1.0 5.0 26 ------- null}
- -t 0.25086 -s 2 -d 3 -p cbr -e 210 -c 1 -i 27 -a 1 -x {1.0 5.0 26 ------- null}
h -t 0.25086 -s 2 -d 3 -p cbr -e 210 -c 1 -i 27 -a 1 -x {1.0 5.0 -1 ------- null}
r -t 0.25172 -s 2 -d 3 -p cbr -e 210 -c 1 -i 13 -a 1 -x {1.0 5.0 12 ------- null}
+ -t 0.25172 -s 3 -d 5 -p cbr -e 210 -c 1 -i 13 -a 1 -x {1.0 5.0 12 ------- null}
- -t 0.25172 -s 3 -d 5 -p cbr -e 210 -c 1 -i 13 -a 1 -x {1.0 5.0 12 ------- null}
h -t 0.25172 -s 3 -d 5 -p cbr -e 210 -c 1 -i 13 -a 1 -x {1.0 5.0 -1 ------- null}
r -t 0.25192 -s 3 -d 4 -p tcp -e 40 -c 0 -i 0 -a 0 -x {0.0 4.0 0 ------- null}
+ -t 0.25192 -s 4 -d 3 -p ack -e 40 -c 0 -i 42 -a 0 -x {4.0 0.0 0 ------- null}
- -t 0.25192 -s 4 -d 3 -p ack -e 40 -c 0 -i 42 -a 0 -x {4.0 0.0 0 ------- null}
h -t 0.25192 -s 4 -d 3 -p ack -e 40 -c 0 -i 42 -a 0 -x {4.0 0.0 -1 ------- null}
+ -t 0.25375 -s 1 -d 2 -p cbr -e 210 -c 1 -i 43 -a 1 -x {1.0 5.0 41 ------- null}
- -t 0.25375 -s 1 -d 2 -p cbr -e 210 -c 1 -i 43 -a 1 -x {1.0 5.0 41 ------- null}
h -t 0.25375 -s 1 -d 2 -p cbr -e 210 -c 1 -i 43 -a 1 -x {1.0 5.0 -1 ------- null}
r -t 0.25461 -s 1 -d 2 -p cbr -e 210 -c 1 -i 28 -a 1 -x {1.0 5.0 27 ------- null}
+ -t 0.25461 -s 2 -d 3 -p cbr -e 210 -c 1 -i 28 -a 1 -x {1.0 5.0 27 ------- null}
- -t 0.25461 -s 2 -d 3 -p cbr -e 210 -c 1 -i 28 -a 1 -x {1.0 5.0 27 ------- null}
h -t 0.25461 -s 2 -d 3 -p cbr -e 210 -c 1 -i 28 -a 1 -x {1.0 5.0 -1 ------- null}
r -t 0.25547 -s 2 -d 3 -p cbr -e 210 -c 1 -i 14 -a 1 -x {1.0 5.0 13 ------- null}
+ -t 0.25547 -s 3 -d 5 -p cbr -e 210 -c 1 -i 14 -a 1 -x {1.0 5.0 13 ------- null}
- -t 0.25547 -s 3 -d 5 -p cbr -e 210 -c 1 -i 14 -a 1 -x {1.0 5.0 13 ------- null}
h -t 0.25547 -s 3 -d 5 -p cbr -e 210 -c 1 -i 14 -a 1 -x {1.0 5.0 -1 ------- null}
+ -t 0.2575 -s 1 -d 2 -p cbr -e 210 -c 1 -i 44 -a 1 -x {1.0 5.0 42 ------- null}
- -t 0.2575 -s 1 -d 2 -p cbr -e 210 -c 1 -i 44 -a 1 -x {1.0 5.0 42 ------- null}
h -t 0.2575 -s 1 -d 2 -p cbr -e 210 -c 1 -i 44 -a 1 -x {1.0 5.0 -1 ------- null}
r -t 0.25836 -s 1 -d 2 -p cbr -e 210 -c 1 -i 29 -a 1 -x {1.0 5.0 28 ------- null}
+ -t 0.25836 -s 2 -d 3 -p cbr -e 210 -c 1 -i 29 -a 1 -x {1.0 5.0 28 ------- null}
- -t 0.25836 -s 2 -d 3 -p cbr -e 210 -c 1 -i 29 -a 1 -x {1.0 5.0 28 ------- null}
h -t 0.25836 -s 2 -d 3 -p cbr -e 210 -c 1 -i 29 -a 1 -x {1.0 5.0 -1 ------- null}
r -t 0.25922 -s 2 -d 3 -p cbr -e 210 -c 1 -i 15 -a 1 -x {1.0 5.0 14 ------- null}
+ -t 0.25922 -s 3 -d 5 -p cbr -e 210 -c 1 -i 15 -a 1 -x {1.0 5.0 14 ------- null}
- -t 0.25922 -s 3 -d 5 -p cbr -e 210 -c 1 -i 15 -a 1 -x {1.0 5.0 14 ------- null}
h -t 0.25922 -s 3 -d 5 -p cbr -e 210 -c 1 -i 15 -a 1 -x {1.0 5.0 -1 ------- null}
r -t 0.26008 -s 3 -d 5 -p cbr -e 210 -c 1 -i 1 -a 1 -x {1.0 5.0 0 ------- null}
+ -t 0.26125 -s 1 -d 2 -p cbr -e 210 -c 1 -i 45 -a 1 -x {1.0 5.0 43 ------- null}
- -t 0.26125 -s 1 -d 2 -p cbr -e 210 -c 1 -i 45 -a 1 -x {1.0 5.0 43 ------- null}
h -t 0.26125 -s 1 -d 2 -p cbr -e 210 -c 1 -i 45 -a 1 -x {1.0 5.0 -1 ------- null}
r -t 0.26211 -s 1 -d 2 -p cbr -e 210 -c 1 -i 30 -a 1 -x {1.0 5.0 29 ------- null}
+ -t 0.26211 -s 2 -d 3 -p cbr -e 210 -c 1 -i 30 -a 1 -x {1.0 5.0 29 ------- null}
- -t 0.26211 -s 2 -d 3 -p cbr -e 210 -c 1 -i 30 -a 1 -x {1.0 5.0 29 ------- null}
h -t 0.26211 -s 2 -d 3 -p cbr -e 210 -c 1 -i 30 -a 1 -x {1.0 5.0 -1 ------- null}
r -t 0.26297 -s 2 -d 3 -p cbr -e 210 -c 1 -i 16 -a 1 -x {1.0 5.0 15 ------- null}
+ -t 0.26297 -s 3 -d 5 -p cbr -e 210 -c 1 -i 16 -a 1 -x {1.0 5.0 15 ------- null}
- -t 0.26297 -s 3 -d 5 -p cbr -e 210 -c 1 -i 16 -a 1 -x {1.0 5.0 15 ------- null}
h -t 0.26297 -s 3 -d 5 -p cbr -e 210 -c 1 -i 16 -a 1 -x {1.0 5.0 -1 ------- null}
r -t 0.26383 -s 3 -d 5 -p cbr -e 210 -c 1 -i 2 -a 1 -x {1.0 5.0 1 ------- null}
+ -t 0.265 -s 1 -d 2 -p cbr -e 210 -c 1 -i 46 -a 1 -x {1.0 5.0 44 ------- null}
- -t 0.265 -s 1 -d 2 -p cbr -e 210 -c 1 -i 46 -a 1 -x {1.0 5.0 44 ------- null}
h -t 0.265 -s 1 -d 2 -p cbr -e 210 -c 1 -i 46 -a 1 -x {1.0 5.0 -1 ------- null}
r -t 0.26586 -s 1 -d 2 -p cbr -e 210 -c 1 -i 31 -a 1 -x {1.0 5.0 30 ------- null}
+ -t 0.26586 -s 2 -d 3 -p cbr -e 210 -c 1 -i 31 -a 1 -x {1.0 5.0 30 ------- null}
- -t 0.26586 -s 2 -d 3 -p cbr -e 210 -c 1 -i 31 -a 1 -x {1.0 5.0 30 ------- null}
h -t 0.26586 -s 2 -d 3 -p cbr -e 210 -c 1 -i 31 -a 1 -x {1.0 5.0 -1 ------- null}
r -t 0.26672 -s 2 -d 3 -p cbr -e 210 -c 1 -i 17 -a 1 -x {1.0 5.0 16 ------- null}
+ -t 0.26672 -s 3 -d 5 -p cbr -e 210 -c 1 -i 17 -a 1 -x {1.0 5.0 16 ------- null}
- -t 0.26672 -s 3 -d 5 -p cbr -e 210 -c 1 -i 17 -a 1 -x {1.0 5.0 16 ------- null}
h -t 0.26672 -s 3 -d 5 -p cbr -e 210 -c 1 -i 17 -a 1 -x {1.0 5.0 -1 ------- null}
r -t 0.26758 -s 3 -d 5 -p cbr -e 210 -c 1 -i 3 -a 1 -x {1.0 5.0 2 ------- null}
+ -t 0.26875 -s 1 -d 2 -p cbr -e 210 -c 1 -i 47 -a 1 -x {1.0 5.0 45 ------- null}
- -t 0.26875 -s 1 -d 2 -p cbr -e 210 -c 1 -i 47 -a 1 -x {1.0 5.0 45 ------- null}
h -t 0.26875 -s 1 -d 2 -p cbr -e 210 -c 1 -i 47 -a 1 -x {1.0 5.0 -1 ------- null}
r -t 0.26961 -s 1 -d 2 -p cbr -e 210 -c 1 -i 32 -a 1 -x {1.0 5.0 31 ------- null}
+ -t 0.26961 -s 2 -d 3 -p cbr -e 210 -c 1 -i 32 -a 1 -x {1.0 5.0 31 ------- null}
- -t 0.26961 -s 2 -d 3 -p cbr -e 210 -c 1 -i 32 -a 1 -x {1.0 5.0 31 ------- null}
h -t 0.26961 -s 2 -d 3 -p cbr -e 210 -c 1 -i 32 -a 1 -x {1.0 5.0 -1 ------- null}
r -t 0.27047 -s 2 -d 3 -p cbr -e 210 -c 1 -i 18 -a 1 -x {1.0 5.0 17 ------- null}
+ -t 0.27047 -s 3 -d 5 -p cbr -e 210 -c 1 -i 18 -a 1 -x {1.0 5.0 17 ------- null}
- -t 0.27047 -s 3 -d 5 -p cbr -e 210 -c 1 -i 18 -a 1 -x {1.0 5.0 17 ------- null}
h -t 0.27047 -s 3 -d 5 -p cbr -e 210 -c 1 -i 18 -a 1 -x {1.0 5.0 -1 ------- null}